
                                 *****************
                                 * O   R   C   A *
                                 *****************

           --- An Ab Initio, DFT and Semiempirical electronic structure package ---

                  #######################################################
                  #                        -***-                        #
                  #  Department of molecular theory and spectroscopy    #
                  #              Directorship: Frank Neese              #
                  # Max Planck Institute for Chemical Energy Conversion #
                  #                  D-45470 Muelheim/Ruhr              #
                  #                       Germany                       #
                  #                                                     #
                  #                  All rights reserved                #
                  #                        -***-                        #
                  #######################################################


                         Program Version 4.0.0.2 - RELEASE -


 With contributions from (in alphabetic order):
   Daniel Aravena         : Magnetic Properties
   Michael Atanasov       : Ab Initio Ligand Field Theory
   Ute Becker             : Parallelization
   Martin Brehm           : Molecular dynamics
   Dmytro Bykov           : SCF Hessian
   Vijay G. Chilkuri      : MRCI spin determinant printing
   Dipayan Datta          : RHF DLPNO-CCSD density
   Achintya Kumar Dutta   : EOM-CC, STEOM-CC
   Dmitry Ganyushin       : Spin-Orbit,Spin-Spin,Magnetic field MRCI
   Yang Guo               : DLPNO-NEVPT2, CIM, IAO-localization
   Andreas Hansen         : Spin unrestricted coupled pair/coupled cluster methods
   Lee Huntington         : MR-EOM, pCC
   Robert Izsak           : Overlap fitted RIJCOSX, COSX-SCS-MP3, EOM
   Christian Kollmar      : KDIIS, OOCD, Brueckner-CCSD(T), CCSD density
   Simone Kossmann        : Meta GGA functionals, TD-DFT gradient, OOMP2, MP2 Hessian
   Martin Krupicka        : AUTO-CI
   Dagmar Lenk            : GEPOL surface
   Dimitrios Liakos       : Extrapolation schemes; parallel MDCI
   Dimitrios Manganas     : ROCIS; embedding schemes
   Dimitrios Pantazis     : SARC Basis sets
   Taras Petrenko         : DFT Hessian,TD-DFT gradient, ASA, ECA, R-Raman, ABS, FL, XAS/XES, NRVS
   Peter Pinski           : DLPNO-MP2
   Christoph Reimann      : Effective Core Potentials
   Marius Retegan         : Local ZFS, SOC
   Christoph Riplinger    : Optimizer, TS searches, QM/MM, DLPNO-CCSD(T), (RO)-DLPNO pert. Triples
   Tobias Risthaus        : Range-separated hybrids, TD-DFT gradient, RPA, STAB
   Michael Roemelt        : Restricted open shell CIS
   Masaaki Saitow         : Open-shell DLPNO
   Barbara Sandhoefer     : DKH picture change effects
   Kantharuban Sivalingam : CASSCF convergence, NEVPT2, FIC-MRCI
   Georgi Stoychev        : AutoAux
   Boris Wezisla          : Elementary symmetry handling
   Frank Wennmohs         : Technical directorship


 We gratefully acknowledge several colleagues who have allowed us to
 interface, adapt or use parts of their codes:
   Stefan Grimme, W. Hujo, H. Kruse,             : VdW corrections, initial TS optimization,
                  C. Bannwarth                     DFT functionals, gCP, sTDA/sTD-DF
   Ed Valeev                                     : LibInt (2-el integral package), F12 methods
   Garnet Chan, S. Sharma, J. Yang, R. Olivares  : DMRG
   Ulf Ekstrom                                   : XCFun DFT Library
   Mihaly Kallay                                 : mrcc  (arbitrary order and MRCC methods)
   Jiri Pittner, Ondrej Demel                    : Mk-CCSD
   Frank Weinhold                                : gennbo (NPA and NBO analysis)
   Christopher J. Cramer and Donald G. Truhlar   : smd solvation model


 Your calculation uses the libint2 library for the computation of 2-el integrals
 For citations please refer to: http://libint.valeyev.net

 This ORCA versions uses:
   CBLAS   interface :  Fast vector & matrix operations
   LAPACKE interface :  Fast linear algebra routines
   SCALAPACK package :  Parallel linear algebra routines




*****************************************
The coordinations will be read from file: 14624.xyz
*****************************************


Your calculation utilizes the basis: ma-def2-TZVP
   F. Weigend and R. Ahlrichs, Phys. Chem. Chem. Phys. 7, 3297 (2005).
   J. Zheng, X. Xu and D. G. Truhlar, Theor. Chem. Acc. 128, 295 (2011).

Your calculation utilizes the auxiliary basis: def2/J
   F. Weigend, Phys. Chem. Chem. Phys. 8, 1057 (2006).

================================================================================
                                        WARNINGS
                       Please study these warnings very carefully!
================================================================================

Warning: TCutStore was < 0. Adjusted to Thresh (uncritical)
INFO   : Checking CIS options ...

WARNING: CIS/ROCIS methods need fully converged wavefunctions
  ===> : Setting SCFConvForced true
         You can overwrite this default with %scf ConvForced false 


INFO   : the flag for use of LIBINT has been found!

================================================================================
                                       INPUT FILE
================================================================================
NAME = 14624.inp
|  1> #
|  2> # My first ORCA calculation :-)
|  3> #
|  4> %pal nprocs 12 end
|  5> 
|  6> !LDA ma-def2-TZVP Grid5 FinalGrid6 TightSCF #def2-TZVP/J RIJCOSX Grid5 FinalGrid6 TightSCF
|  7> 
|  8> #
|  9> * xyzfile 0 1 14624.xyz
| 10> 
| 11> #%moinp "604a-pbed3-svp-opt-lrtddft.gbw"
| 12> 
| 13> #%elprop
| 14> #Polar 1
| 15> #end
| 16> 
| 17> %tddft
| 18>   #TDA false
| 19>   nroots 50   # Setting the number of roots (transitions) to be calculated.
| 20>   maxdim 250 # Setting the maximum dimension of the expansion space. Should be 5-10 times the no. of nroots for favorable convergence.
| 21>   end
| 22> 
| 23>                          ****END OF INPUT****
================================================================================

                       ****************************
                       * Single Point Calculation *
                       ****************************

---------------------------------
CARTESIAN COORDINATES (ANGSTROEM)
---------------------------------
  C      0.138037    1.519710   -0.068803
  C     -0.057259    0.010159    0.044129
  C     -1.499830   -0.427372    0.077765
  N     -2.463612    0.395366    0.094268
  C     -3.833066   -0.105786    0.071751
  C     -3.937689   -1.555057   -0.411640
  C     -2.862076   -2.367366    0.295089
  O     -1.567074   -1.792388    0.085467
  H      1.204448    1.764303   -0.082012
  H     -0.319016    1.906905   -0.982783
  H     -0.329319    2.038786    0.771105
  H      0.426040   -0.513855   -0.790231
  H      0.429384   -0.380874    0.947181
  H     -4.256944   -0.009610    1.081331
  H     -4.425581    0.558700   -0.567187
  H     -4.927173   -1.977630   -0.208619
  H     -3.772013   -1.603006   -1.493969
  H     -3.056747   -2.407915    1.375737
  H     -2.795654   -3.392446   -0.078000

----------------------------
CARTESIAN COORDINATES (A.U.)
----------------------------
  NO LB      ZA    FRAG     MASS         X           Y           Z
   0 C     6.0000    0    12.011    0.260852    2.871835   -0.130020
   1 C     6.0000    0    12.011   -0.108203    0.019197    0.083392
   2 C     6.0000    0    12.011   -2.834269   -0.807616    0.146954
   3 N     7.0000    0    14.007   -4.655552    0.747133    0.178141
   4 C     6.0000    0    12.011   -7.243445   -0.199907    0.135589
   5 C     6.0000    0    12.011   -7.441155   -2.938632   -0.777887
   6 C     6.0000    0    12.011   -5.408539   -4.473674    0.557638
   7 O     8.0000    0    15.999   -2.961341   -3.387123    0.161510
   8 H     1.0000    0     1.008    2.276076    3.334050   -0.154980
   9 H     1.0000    0     1.008   -0.602852    3.603529   -1.857190
  10 H     1.0000    0     1.008   -0.622323    3.852747    1.457177
  11 H     1.0000    0     1.008    0.805100   -0.971045   -1.493321
  12 H     1.0000    0     1.008    0.811418   -0.719747    1.789912
  13 H     1.0000    0     1.008   -8.044459   -0.018161    2.043419
  14 H     1.0000    0     1.008   -8.363135    1.055790   -1.071829
  15 H     1.0000    0     1.008   -9.311007   -3.737178   -0.394233
  16 H     1.0000    0     1.008   -7.128071   -3.029243   -2.823193
  17 H     1.0000    0     1.008   -5.776415   -4.550300    2.599766
  18 H     1.0000    0     1.008   -5.283021   -6.410794   -0.147398

--------------------------------
INTERNAL COORDINATES (ANGSTROEM)
--------------------------------
 C      0   0   0     0.000000000000     0.00000000     0.00000000
 C      1   0   0     1.526315355424     0.00000000     0.00000000
 C      2   1   0     1.507838658350   114.27069572     0.00000000
 N      3   2   1     1.267297996788   122.64910683   355.85425943
 C      4   3   2     1.458446032307   119.39418686   177.52405880
 C      5   4   3     1.531339342742   113.21801577   341.66682036
 C      6   5   4     1.521925554394   108.07511522    45.74339429
 O      3   2   1     1.366693535080   109.69495794   175.80694096
 H      1   2   3     1.094180954957   110.28458281   179.67908206
 H      1   2   3     1.092783359164   111.02632553   300.05423723
 H      1   2   3     1.092386500603   110.99743369    59.19362610
 H      2   1   3     1.097417797010   111.07860075   121.74726391
 H      2   1   3     1.097829722287   110.88044188   238.19532331
 H      5   4   3     1.099169629982   108.53337366   104.44257955
 H      5   4   3     1.095835915651   107.95944001   218.79949796
 H      6   5   4     1.094925641074   111.62098946   167.17873499
 H      6   5   4     1.095985692490   110.04812385   286.61157773
 H      7   6   5     1.098790071039   110.55956706    65.26894283
 H      7   6   5     1.092884272120   112.64694968   186.42915534

---------------------------
INTERNAL COORDINATES (A.U.)
---------------------------
 C      0   0   0     0.000000000000     0.00000000     0.00000000
 C      1   0   0     2.884318015750     0.00000000     0.00000000
 C      2   1   0     2.849402118422   114.27069572     0.00000000
 N      3   2   1     2.394846143997   122.64910683   355.85425943
 C      4   3   2     2.756063582164   119.39418686   177.52405880
 C      5   4   3     2.893811975880   113.21801577   341.66682036
 C      6   5   4     2.876022494022   108.07511522    45.74339429
 O      3   2   1     2.582676490301   109.69495794   175.80694096
 H      1   2   3     2.067702345821   110.28458281   179.67908206
 H      1   2   3     2.065061272526   111.02632553   300.05423723
 H      1   2   3     2.064311318532   110.99743369    59.19362610
 H      2   1   3     2.073819090840   111.07860075   121.74726391
 H      2   1   3     2.074597516802   110.88044188   238.19532331
 H      5   4   3     2.077129575390   108.53337366   104.44257955
 H      5   4   3     2.070829768296   107.95944001   218.79949796
 H      6   5   4     2.069109598639   111.62098946   167.17873499
 H      6   5   4     2.071112805502   110.04812385   286.61157773
 H      7   6   5     2.076412312936   110.55956706    65.26894283
 H      7   6   5     2.065251970376   112.64694968   186.42915534

---------------------
BASIS SET INFORMATION
---------------------
There are 4 groups of distinct atoms

 Group   1 Type C   : 12s7p2d1f contracted to 6s4p2d1f pattern {621111/4111/11/1}
 Group   2 Type N   : 12s7p2d1f contracted to 6s4p2d1f pattern {621111/4111/11/1}
 Group   3 Type O   : 12s7p2d1f contracted to 6s4p2d1f pattern {621111/4111/11/1}
 Group   4 Type H   : 5s1p contracted to 3s1p pattern {311/1}

Atom   0C    basis set group =>   1
Atom   1C    basis set group =>   1
Atom   2C    basis set group =>   1
Atom   3N    basis set group =>   2
Atom   4C    basis set group =>   1
Atom   5C    basis set group =>   1
Atom   6C    basis set group =>   1
Atom   7O    basis set group =>   3
Atom   8H    basis set group =>   4
Atom   9H    basis set group =>   4
Atom  10H    basis set group =>   4
Atom  11H    basis set group =>   4
Atom  12H    basis set group =>   4
Atom  13H    basis set group =>   4
Atom  14H    basis set group =>   4
Atom  15H    basis set group =>   4
Atom  16H    basis set group =>   4
Atom  17H    basis set group =>   4
Atom  18H    basis set group =>   4
-------------------------------
AUXILIARY BASIS SET INFORMATION
-------------------------------
There are 4 groups of distinct atoms

 Group   1 Type C   : 12s5p4d2f1g contracted to 6s4p3d1f1g pattern {711111/2111/211/2/1}
 Group   2 Type N   : 12s5p4d2f1g contracted to 6s4p3d1f1g pattern {711111/2111/211/2/1}
 Group   3 Type O   : 12s5p4d2f1g contracted to 6s4p3d1f1g pattern {711111/2111/211/2/1}
 Group   4 Type H   : 5s2p1d contracted to 3s1p1d pattern {311/2/1}

Atom   0C    basis set group =>   1
Atom   1C    basis set group =>   1
Atom   2C    basis set group =>   1
Atom   3N    basis set group =>   2
Atom   4C    basis set group =>   1
Atom   5C    basis set group =>   1
Atom   6C    basis set group =>   1
Atom   7O    basis set group =>   3
Atom   8H    basis set group =>   4
Atom   9H    basis set group =>   4
Atom  10H    basis set group =>   4
Atom  11H    basis set group =>   4
Atom  12H    basis set group =>   4
Atom  13H    basis set group =>   4
Atom  14H    basis set group =>   4
Atom  15H    basis set group =>   4
Atom  16H    basis set group =>   4
Atom  17H    basis set group =>   4
Atom  18H    basis set group =>   4
-------------------------
ECP PARAMETER INFORMATION
-------------------------



--------------------------------------------------------------------------
WARNING: Open MPI failed to open the /dev/knem device due to a local
error. Please check with your system administrator to get the problem
fixed, or set the btl_vader_single_copy_mechanism MCA variable to none
to silence this warning and run without knem support.

The vader shared memory BTL will fall back on another single-copy
mechanism if one is available. This may result in lower performance.

  Local host: ganbo135
  Errno:      2 (No such file or directory)
--------------------------------------------------------------------------
--------------------------------------------------------------------------
WARNING: Linux kernel knem support was requested via the
btl_vader_single_copy_mechanism MCA parameter, but Knem support was either not
compiled into this Open MPI installation, or Knem support was unable
to be activated in this process.

The vader BTL will fall back on another single-copy mechanism if one
is available. This may result in lower performance.

  Local host: ganbo135
--------------------------------------------------------------------------


           ************************************************************
           *        Program running with 12 parallel MPI-processes    *
           *              working on a common directory               *
           ************************************************************
------------------------------------------------------------------------------
                           ORCA GTO INTEGRAL CALCULATION
                           -- RI-GTO INTEGRALS CHOSEN --
------------------------------------------------------------------------------

                         BASIS SET STATISTICS AND STARTUP INFO

Gaussian basis set:
 # of primitive gaussian shells          ...  242
 # of primitive gaussian functions       ...  488
 # of contracted shells                  ...  148
 # of contracted basis functions         ...  346
 Highest angular momentum                ...    3
 Maximum contraction depth               ...    6
Auxiliary gaussian basis set:
 # of primitive gaussian shells          ...  280
 # of primitive gaussian functions       ...  736
 # of contracted shells                  ...  175
 # of contracted aux-basis functions     ...  513
 Highest angular momentum                ...    4
 Maximum contraction depth               ...    7
Ratio of auxiliary to basis functions    ...  1.48
Integral package used                  ... LIBINT
 One Electron integrals                  
   ECP integrals                         ... done
 Ordering auxiliary basis shells         ... done
 Integral threshhold             Thresh  ...  2.500e-11
 Primitive cut-off               TCut    ...  2.500e-12
 Pre-screening matrix                    ... done
 Shell pair data                         ... 
 Ordering of the shell pairs             ... done (   0.003 sec) 10253 of 11026 pairs
 Determination of significant pairs      ... done (   0.000 sec)
 Creation of shell pair data             ... done (   0.005 sec)
 Storage of shell pair data              ... done (   0.007 sec)
 Shell pair data done in (   0.015 sec)
 Computing two index integrals           ... done
 Cholesky decomposition of the V-matrix  ... done


Timings:
 Total evaluation time                   ...   0.599 sec (  0.010 min)
 One electron matrix time                ...   0.145 sec (  0.002 min) = 24.3%
 Schwartz matrix evaluation time         ...   0.342 sec (  0.006 min) = 57.1%
 Two index repulsion integral time       ...   0.020 sec (  0.000 min) =  3.3%
 Cholesky decomposition of V             ...   0.041 sec (  0.001 min) =  6.8%
 Three index repulsion integral time     ...   0.000 sec (  0.000 min) =  0.0%

--------------------------------------------------------------------------
WARNING: Open MPI failed to open the /dev/knem device due to a local
error. Please check with your system administrator to get the problem
fixed, or set the btl_vader_single_copy_mechanism MCA variable to none
to silence this warning and run without knem support.

The vader shared memory BTL will fall back on another single-copy
mechanism if one is available. This may result in lower performance.

  Local host: ganbo135
  Errno:      2 (No such file or directory)
--------------------------------------------------------------------------
--------------------------------------------------------------------------
WARNING: Linux kernel knem support was requested via the
btl_vader_single_copy_mechanism MCA parameter, but Knem support was either not
compiled into this Open MPI installation, or Knem support was unable
to be activated in this process.

The vader BTL will fall back on another single-copy mechanism if one
is available. This may result in lower performance.

  Local host: ganbo135
--------------------------------------------------------------------------


           ************************************************************
           *        Program running with 12 parallel MPI-processes    *
           *              working on a common directory               *
           ************************************************************
-------------------------------------------------------------------------------
                                 ORCA SCF
-------------------------------------------------------------------------------

------------
SCF SETTINGS
------------
Hamiltonian:
 Density Functional     Method          .... DFT(GTOs)
 Exchange Functional    Exchange        .... Slater
   X-Alpha parameter    XAlpha          ....  0.666667
 Correlation Functional Correlation     .... VWN-5
 Gradients option       PostSCFGGA      .... off
 RI-approximation to the Coulomb term is turned on
   Number of auxiliary basis functions  .... 513


General Settings:
 Integral files         IntName         .... 14624
 Hartree-Fock type      HFTyp           .... RHF
 Total Charge           Charge          ....    0
 Multiplicity           Mult            ....    1
 Number of Electrons    NEL             ....   62
 Basis Dimension        Dim             ....  346
 Nuclear Repulsion      ENuc            ....    391.0506492103 Eh

Convergence Acceleration:
 DIIS                   CNVDIIS         .... on
   Start iteration      DIISMaxIt       ....    12
   Startup error        DIISStart       ....  0.200000
   # of expansion vecs  DIISMaxEq       ....     5
   Bias factor          DIISBfac        ....   1.050
   Max. coefficient     DIISMaxC        ....  10.000
 Newton-Raphson         CNVNR           .... off
 SOSCF                  CNVSOSCF        .... on
   Start iteration      SOSCFMaxIt      ....   150
   Startup grad/error   SOSCFStart      ....  0.003300
 Level Shifting         CNVShift        .... on
   Level shift para.    LevelShift      ....    0.2500
   Turn off err/grad.   ShiftErr        ....    0.0010
 Zerner damping         CNVZerner       .... off
 Static damping         CNVDamp         .... on
   Fraction old density DampFac         ....    0.7000
   Max. Damping (<1)    DampMax         ....    0.9800
   Min. Damping (>=0)   DampMin         ....    0.0000
   Turn off err/grad.   DampErr         ....    0.1000
 Fernandez-Rico         CNVRico         .... off

SCF Procedure:
 Maximum # iterations   MaxIter         ....   125
 SCF integral mode      SCFMode         .... Direct
   Integral package                     .... LIBINT
 Reset frequeny         DirectResetFreq ....    20
 Integral Threshold     Thresh          ....  2.500e-11 Eh
 Primitive CutOff       TCut            ....  2.500e-12 Eh

Convergence Tolerance:
 Convergence Check Mode ConvCheckMode   .... Total+1el-Energy
 Convergence forced     ConvForced      .... 1
 Energy Change          TolE            ....  1.000e-08 Eh
 1-El. energy change                    ....  1.000e-05 Eh
 Orbital Gradient       TolG            ....  1.000e-05
 Orbital Rotation angle TolX            ....  1.000e-05
 DIIS Error             TolErr          ....  5.000e-07


Diagonalization of the overlap matrix:
Smallest eigenvalue                        ... 5.851e-06
Time for diagonalization                   ...    0.042 sec
Threshold for overlap eigenvalues          ... 1.000e-08
Number of eigenvalues below threshold      ... 0
Time for construction of square roots      ...    0.040 sec
Total time needed                          ...    0.083 sec

-------------------
DFT GRID GENERATION
-------------------

General Integration Accuracy     IntAcc      ...  5.010
Radial Grid Type                 RadialGrid  ... Gauss-Chebyshev
Angular Grid (max. acc.)         AngularGrid ... Lebedev-434
Angular grid pruning method      GridPruning ... 3 (G Style)
Weight generation scheme         WeightScheme... Becke
Basis function cutoff            BFCut       ...    1.0000e-11
Integration weight cutoff        WCut        ...    1.0000e-14
Grids for H and He will be reduced by one unit

# of grid points (after initial pruning)     ... 159232 (   0.0 sec)
# of grid points (after weights+screening)   ... 143807 (   0.3 sec)
nearest neighbour list constructed           ...    0.0 sec
Grid point re-assignment to atoms done       ...    0.1 sec
Grid point division into batches done        ...    1.4 sec
Reduced shell lists constructed in    1.9 sec

Total number of grid points                  ...   143807
Total number of batches                      ...     2258
Average number of points per batch           ...       63
Average number of grid points per atom       ...     7569
Average number of shells per batch           ...   108.19 (73.10%)
Average number of basis functions per batch  ...   254.97 (73.69%)
Average number of large shells per batch     ...    88.89 (82.16%)
Average number of large basis fcns per batch ...   206.41 (80.95%)
Maximum spatial batch extension              ...   1.79,  2.32,  2.57 au
Average spatial batch extension              ...   0.07,  0.07,  0.07 au

Time for grid setup =    2.413 sec

------------------------------
INITIAL GUESS: MODEL POTENTIAL
------------------------------
Loading Hartree-Fock densities                     ... done
Calculating cut-offs                               ... done
Setting up the integral package                    ... done
Initializing the effective Hamiltonian             ... done
Starting the Coulomb interaction                   ... done (   0.1 sec)
Reading the grid                                   ... done
Mapping shells                                     ... done
Starting the XC term evaluation                    ... done (   0.6 sec)
  promolecular density results
     # of electrons  =     61.994616541
     EX              =    -44.130492233
     EC              =     -3.922701672
     EX+EC           =    -48.053193905
Transforming the Hamiltonian                       ... done (   0.0 sec)
Diagonalizing the Hamiltonian                      ... done (   0.1 sec)
Back transforming the eigenvectors                 ... done (   0.0 sec)
Now organizing SCF variables                       ... done
                      ------------------
                      INITIAL GUESS DONE (   3.4 sec)
                      ------------------
--------------
SCF ITERATIONS
--------------
ITER       Energy         Delta-E        Max-DP      RMS-DP      [F,P]     Damp
               ***  Starting incremental Fock matrix formation  ***
  0   -361.9503640333   0.000000000000 0.26593651  0.00184658  0.2254575 0.7000
  1   -362.0830263528  -0.132662319468 0.13583154  0.00112363  0.0897809 0.7000
                               ***Turning on DIIS***
  2   -362.1245079692  -0.041481616416 0.06102252  0.00134153  0.0248845 0.0000
  3   -362.1914794868  -0.066971517552 0.10170877  0.00086222  0.0590730 0.0000
  4   -362.2102148613  -0.018735374515 0.00863238  0.00022154  0.0233145 0.0000
  5   -362.2119456111  -0.001730749849 0.01388268  0.00012564  0.0071188 0.0000
                      *** Initiating the SOSCF procedure ***
                           *** Shutting down DIIS ***
                      *** Re-Reading the Fockian *** 
                      *** Removing any level shift *** 
ITER      Energy       Delta-E        Grad      Rot      Max-DP    RMS-DP
  6   -362.21208834  -0.0001427313  0.000219  0.000219  0.007082  0.000068
               *** Restarting incremental Fock matrix formation ***
  7   -362.21209546  -0.0000071190  0.000177  0.000526  0.004397  0.000063
  8   -362.21208855   0.0000069141  0.000407  0.000361  0.000970  0.000012
  9   -362.21209850  -0.0000099499  0.000052  0.000233  0.000710  0.000008
 10   -362.21209807   0.0000004285  0.000165  0.000217  0.000781  0.000005
 11   -362.21209857  -0.0000005031  0.000017  0.000048  0.001600  0.000008
 12   -362.21209854   0.0000000320  0.000019  0.000022  0.000140  0.000002
                  ***Gradient check signals convergence***
              ***Rediagonalizing the Fockian in SOSCF/NRSCF***

               *****************************************************
               *                     SUCCESS                       *
               *           SCF CONVERGED AFTER  13 CYCLES          *
               *****************************************************


----------------
TOTAL SCF ENERGY
----------------

Total Energy       :         -362.21209859 Eh           -9856.29229 eV

Components:
Nuclear Repulsion  :          391.05064921 Eh           10641.02914 eV
Electronic Energy  :         -753.26274780 Eh          -20497.32143 eV
One Electron Energy:        -1269.21259162 Eh          -34537.03045 eV
Two Electron Energy:          515.94984382 Eh           14039.70902 eV

Virial components:
Potential Energy   :         -721.65643426 Eh          -19637.26992 eV
Kinetic Energy     :          359.44433568 Eh            9780.97763 eV
Virial Ratio       :            2.00770012


DFT components:
N(Alpha)           :       30.999995929983 electrons
N(Beta)            :       30.999995929983 electrons
N(Total)           :       61.999991859967 electrons
E(X)               :      -44.872432594073 Eh       
E(C)               :       -3.975567005215 Eh       
E(XC)              :      -48.847999599288 Eh       

---------------
SCF CONVERGENCE
---------------

  Last Energy change         ...   -4.6495e-08  Tolerance :   1.0000e-08
  Last MAX-Density change    ...    1.3961e-03  Tolerance :   1.0000e-07
  Last RMS-Density change    ...    8.2757e-06  Tolerance :   5.0000e-09
  Last Orbital Gradient      ...    6.0567e-07  Tolerance :   1.0000e-05
  Last Orbital Rotation      ...    1.8822e-06  Tolerance :   1.0000e-05

             **** THE GBW FILE WAS UPDATED (14624.gbw) ****
             **** DENSITY FILE WAS UPDATED (14624.scfp.tmp) ****
             **** ENERGY FILE WAS UPDATED (14624.en.tmp) ****
----------------
ORBITAL ENERGIES
----------------

  NO   OCC          E(Eh)            E(eV) 
   0   2.0000     -18.645034      -507.3572 
   1   2.0000     -13.838080      -376.5533 
   2   2.0000      -9.862010      -268.3589 
   3   2.0000      -9.839728      -267.7526 
   4   2.0000      -9.806927      -266.8601 
   5   2.0000      -9.789612      -266.3889 
   6   2.0000      -9.782726      -266.2015 
   7   2.0000      -9.761160      -265.6147 
   8   2.0000      -0.985199       -26.8086 
   9   2.0000      -0.821675       -22.3589 
  10   2.0000      -0.735364       -20.0103 
  11   2.0000      -0.681399       -18.5418 
  12   2.0000      -0.625088       -17.0095 
  13   2.0000      -0.596751       -16.2384 
  14   2.0000      -0.546112       -14.8605 
  15   2.0000      -0.484178       -13.1751 
  16   2.0000      -0.456607       -12.4249 
  17   2.0000      -0.448819       -12.2130 
  18   2.0000      -0.416980       -11.3466 
  19   2.0000      -0.398010       -10.8304 
  20   2.0000      -0.394333       -10.7303 
  21   2.0000      -0.377285       -10.2664 
  22   2.0000      -0.354010        -9.6331 
  23   2.0000      -0.346530        -9.4296 
  24   2.0000      -0.327510        -8.9120 
  25   2.0000      -0.314872        -8.5681 
  26   2.0000      -0.307918        -8.3789 
  27   2.0000      -0.292722        -7.9654 
  28   2.0000      -0.279583        -7.6078 
  29   2.0000      -0.226653        -6.1675 
  30   2.0000      -0.211101        -5.7444 
  31   0.0000      -0.026465        -0.7202 
  32   0.0000      -0.013143        -0.3576 
  33   0.0000      -0.001043        -0.0284 
  34   0.0000       0.005985         0.1629 
  35   0.0000       0.007863         0.2140 
  36   0.0000       0.017664         0.4807 
  37   0.0000       0.026307         0.7158 
  38   0.0000       0.035344         0.9618 
  39   0.0000       0.037905         1.0314 
  40   0.0000       0.045772         1.2455 
  41   0.0000       0.051218         1.3937 
  42   0.0000       0.053317         1.4508 
  43   0.0000       0.066061         1.7976 
  44   0.0000       0.069018         1.8781 
  45   0.0000       0.072869         1.9829 
  46   0.0000       0.077721         2.1149 
  47   0.0000       0.082697         2.2503 
  48   0.0000       0.085473         2.3258 
  49   0.0000       0.091832         2.4989 
  50   0.0000       0.100065         2.7229 
  51   0.0000       0.108937         2.9643 
  52   0.0000       0.112684         3.0663 
  53   0.0000       0.116706         3.1757 
  54   0.0000       0.119494         3.2516 
  55   0.0000       0.123839         3.3698 
  56   0.0000       0.132905         3.6165 
  57   0.0000       0.140914         3.8345 
  58   0.0000       0.141661         3.8548 
  59   0.0000       0.145780         3.9669 
  60   0.0000       0.147063         4.0018 
  61   0.0000       0.153662         4.1814 
  62   0.0000       0.157635         4.2895 
  63   0.0000       0.164391         4.4733 
  64   0.0000       0.166493         4.5305 
  65   0.0000       0.171404         4.6641 
  66   0.0000       0.171825         4.6756 
  67   0.0000       0.177586         4.8324 
  68   0.0000       0.186687         5.0800 
  69   0.0000       0.190387         5.1807 
  70   0.0000       0.194177         5.2838 
  71   0.0000       0.202768         5.5176 
  72   0.0000       0.203884         5.5480 
  73   0.0000       0.210284         5.7221 
  74   0.0000       0.215198         5.8558 
  75   0.0000       0.221120         6.0170 
  76   0.0000       0.226437         6.1617 
  77   0.0000       0.244351         6.6491 
  78   0.0000       0.261887         7.1263 
  79   0.0000       0.261994         7.1292 
  80   0.0000       0.276748         7.5307 
  81   0.0000       0.278451         7.5770 
  82   0.0000       0.284387         7.7386 
  83   0.0000       0.294313         8.0087 
  84   0.0000       0.298033         8.1099 
  85   0.0000       0.321215         8.7407 
  86   0.0000       0.327466         8.9108 
  87   0.0000       0.336622         9.1599 
  88   0.0000       0.353436         9.6175 
  89   0.0000       0.358766         9.7625 
  90   0.0000       0.370932        10.0936 
  91   0.0000       0.381863        10.3910 
  92   0.0000       0.405801        11.0424 
  93   0.0000       0.411648        11.2015 
  94   0.0000       0.416172        11.3246 
  95   0.0000       0.433862        11.8060 
  96   0.0000       0.440125        11.9764 
  97   0.0000       0.445289        12.1169 
  98   0.0000       0.449759        12.2386 
  99   0.0000       0.456044        12.4096 
 100   0.0000       0.466062        12.6822 
 101   0.0000       0.468369        12.7450 
 102   0.0000       0.475148        12.9294 
 103   0.0000       0.480566        13.0769 
 104   0.0000       0.487567        13.2674 
 105   0.0000       0.491100        13.3635 
 106   0.0000       0.502850        13.6832 
 107   0.0000       0.508644        13.8409 
 108   0.0000       0.519984        14.1495 
 109   0.0000       0.529136        14.3985 
 110   0.0000       0.532297        14.4845 
 111   0.0000       0.548058        14.9134 
 112   0.0000       0.574136        15.6230 
 113   0.0000       0.578249        15.7349 
 114   0.0000       0.587488        15.9864 
 115   0.0000       0.596399        16.2288 
 116   0.0000       0.619829        16.8664 
 117   0.0000       0.628600        17.1051 
 118   0.0000       0.635206        17.2848 
 119   0.0000       0.647274        17.6132 
 120   0.0000       0.661684        18.0053 
 121   0.0000       0.698342        19.0029 
 122   0.0000       0.703827        19.1521 
 123   0.0000       0.733209        19.9516 
 124   0.0000       0.737124        20.0582 
 125   0.0000       0.744425        20.2568 
 126   0.0000       0.762875        20.7589 
 127   0.0000       0.784674        21.3521 
 128   0.0000       0.813161        22.1272 
 129   0.0000       0.835321        22.7302 
 130   0.0000       0.850858        23.1530 
 131   0.0000       0.856658        23.3109 
 132   0.0000       0.863877        23.5073 
 133   0.0000       0.882084        24.0027 
 134   0.0000       0.895839        24.3770 
 135   0.0000       0.944010        25.6878 
 136   0.0000       0.950707        25.8701 
 137   0.0000       0.978966        26.6390 
 138   0.0000       0.998695        27.1759 
 139   0.0000       1.015126        27.6230 
 140   0.0000       1.038221        28.2514 
 141   0.0000       1.053675        28.6720 
 142   0.0000       1.078500        29.3475 
 143   0.0000       1.089704        29.6524 
 144   0.0000       1.108097        30.1529 
 145   0.0000       1.116438        30.3798 
 146   0.0000       1.129540        30.7364 
 147   0.0000       1.142984        31.1022 
 148   0.0000       1.152690        31.3663 
 149   0.0000       1.175858        31.9967 
 150   0.0000       1.193573        32.4788 
 151   0.0000       1.210631        32.9430 
 152   0.0000       1.230176        33.4748 
 153   0.0000       1.252172        34.0733 
 154   0.0000       1.304601        35.5000 
 155   0.0000       1.353745        36.8373 
 156   0.0000       1.417357        38.5682 
 157   0.0000       1.421352        38.6770 
 158   0.0000       1.451324        39.4925 
 159   0.0000       1.456113        39.6229 
 160   0.0000       1.485570        40.4244 
 161   0.0000       1.496543        40.7230 
 162   0.0000       1.507892        41.0318 
 163   0.0000       1.515468        41.2380 
 164   0.0000       1.524298        41.4783 
 165   0.0000       1.535057        41.7710 
 166   0.0000       1.545800        42.0634 
 167   0.0000       1.555724        42.3334 
 168   0.0000       1.558120        42.3986 
 169   0.0000       1.566756        42.6336 
 170   0.0000       1.592151        43.3246 
 171   0.0000       1.618830        44.0506 
 172   0.0000       1.620811        44.1045 
 173   0.0000       1.659116        45.1468 
 174   0.0000       1.664312        45.2882 
 175   0.0000       1.687770        45.9266 
 176   0.0000       1.695845        46.1463 
 177   0.0000       1.714690        46.6591 
 178   0.0000       1.723286        46.8930 
 179   0.0000       1.732107        47.1330 
 180   0.0000       1.744598        47.4729 
 181   0.0000       1.784833        48.5678 
 182   0.0000       1.816304        49.4241 
 183   0.0000       1.828194        49.7477 
 184   0.0000       1.876150        51.0526 
 185   0.0000       1.879677        51.1486 
 186   0.0000       1.907844        51.9151 
 187   0.0000       1.916103        52.1398 
 188   0.0000       1.931783        52.5665 
 189   0.0000       1.951622        53.1063 
 190   0.0000       1.977484        53.8101 
 191   0.0000       1.987459        54.0815 
 192   0.0000       2.023634        55.0659 
 193   0.0000       2.036229        55.4086 
 194   0.0000       2.071251        56.3616 
 195   0.0000       2.080118        56.6029 
 196   0.0000       2.116013        57.5796 
 197   0.0000       2.147159        58.4272 
 198   0.0000       2.177738        59.2593 
 199   0.0000       2.179240        59.3001 
 200   0.0000       2.211818        60.1866 
 201   0.0000       2.225583        60.5612 
 202   0.0000       2.246159        61.1211 
 203   0.0000       2.276206        61.9387 
 204   0.0000       2.287118        62.2356 
 205   0.0000       2.313628        62.9570 
 206   0.0000       2.322381        63.1952 
 207   0.0000       2.334833        63.5340 
 208   0.0000       2.382011        64.8178 
 209   0.0000       2.388887        65.0049 
 210   0.0000       2.403764        65.4098 
 211   0.0000       2.424558        65.9756 
 212   0.0000       2.443662        66.4954 
 213   0.0000       2.451708        66.7144 
 214   0.0000       2.459050        66.9141 
 215   0.0000       2.495388        67.9030 
 216   0.0000       2.500420        68.0399 
 217   0.0000       2.512482        68.3681 
 218   0.0000       2.517003        68.4911 
 219   0.0000       2.531829        68.8946 
 220   0.0000       2.535275        68.9883 
 221   0.0000       2.557651        69.5972 
 222   0.0000       2.569778        69.9272 
 223   0.0000       2.594157        70.5906 
 224   0.0000       2.598815        70.7174 
 225   0.0000       2.612319        71.0848 
 226   0.0000       2.627705        71.5035 
 227   0.0000       2.638598        71.7999 
 228   0.0000       2.661026        72.4102 
 229   0.0000       2.677757        72.8655 
 230   0.0000       2.692856        73.2763 
 231   0.0000       2.711139        73.7738 
 232   0.0000       2.735236        74.4295 
 233   0.0000       2.763690        75.2038 
 234   0.0000       2.811961        76.5174 
 235   0.0000       2.822150        76.7946 
 236   0.0000       2.849410        77.5364 
 237   0.0000       2.878185        78.3194 
 238   0.0000       2.910129        79.1886 
 239   0.0000       2.931971        79.7830 
 240   0.0000       2.954568        80.3979 
 241   0.0000       2.965871        80.7055 
 242   0.0000       2.974505        80.9404 
 243   0.0000       3.002322        81.6973 
 244   0.0000       3.020645        82.1959 
 245   0.0000       3.032054        82.5064 
 246   0.0000       3.053690        83.0951 
 247   0.0000       3.056090        83.1604 
 248   0.0000       3.087142        84.0054 
 249   0.0000       3.096460        84.2589 
 250   0.0000       3.108221        84.5790 
 251   0.0000       3.121172        84.9314 
 252   0.0000       3.131980        85.2255 
 253   0.0000       3.135679        85.3262 
 254   0.0000       3.152391        85.7809 
 255   0.0000       3.175784        86.4175 
 256   0.0000       3.177720        86.4702 
 257   0.0000       3.209522        87.3355 
 258   0.0000       3.218364        87.5761 
 259   0.0000       3.232917        87.9722 
 260   0.0000       3.246134        88.3318 
 261   0.0000       3.276470        89.1573 
 262   0.0000       3.282259        89.3148 
 263   0.0000       3.310604        90.0861 
 264   0.0000       3.316583        90.2488 
 265   0.0000       3.327828        90.5548 
 266   0.0000       3.354018        91.2675 
 267   0.0000       3.360409        91.4414 
 268   0.0000       3.369016        91.6756 
 269   0.0000       3.410676        92.8092 
 270   0.0000       3.426124        93.2296 
 271   0.0000       3.436671        93.5166 
 272   0.0000       3.457907        94.0944 
 273   0.0000       3.461955        94.2046 
 274   0.0000       3.499417        95.2240 
 275   0.0000       3.528378        96.0120 
 276   0.0000       3.540999        96.3555 
 277   0.0000       3.554941        96.7349 
 278   0.0000       3.590896        97.7133 
 279   0.0000       3.636667        98.9587 
 280   0.0000       3.665486        99.7429 
 281   0.0000       3.696881       100.5972 
 282   0.0000       3.716585       101.1334 
 283   0.0000       3.747450       101.9733 
 284   0.0000       3.751420       102.0813 
 285   0.0000       3.800954       103.4292 
 286   0.0000       3.859029       105.0095 
 287   0.0000       3.870029       105.3088 
 288   0.0000       3.894385       105.9716 
 289   0.0000       3.902360       106.1886 
 290   0.0000       3.933485       107.0356 
 291   0.0000       3.952511       107.5533 
 292   0.0000       3.993157       108.6593 
 293   0.0000       4.020541       109.4045 
 294   0.0000       4.077589       110.9568 
 295   0.0000       4.103571       111.6639 
 296   0.0000       4.129664       112.3739 
 297   0.0000       4.186939       113.9324 
 298   0.0000       4.199956       114.2866 
 299   0.0000       4.223771       114.9346 
 300   0.0000       4.259065       115.8951 
 301   0.0000       4.300067       117.0108 
 302   0.0000       4.352500       118.4376 
 303   0.0000       4.385071       119.3239 
 304   0.0000       4.398208       119.6813 
 305   0.0000       4.410682       120.0208 
 306   0.0000       4.469008       121.6079 
 307   0.0000       4.514698       122.8512 
 308   0.0000       4.540941       123.5653 
 309   0.0000       4.552531       123.8807 
 310   0.0000       4.609815       125.4395 
 311   0.0000       4.708982       128.1379 
 312   0.0000       4.719345       128.4199 
 313   0.0000       4.753166       129.3402 
 314   0.0000       4.836434       131.6061 
 315   0.0000       4.864113       132.3592 
 316   0.0000       4.879271       132.7717 
 317   0.0000       4.948461       134.6545 
 318   0.0000       5.034465       136.9948 
 319   0.0000       5.092547       138.5752 
 320   0.0000       5.175323       140.8277 
 321   0.0000       5.201880       141.5504 
 322   0.0000       5.270386       143.4145 
 323   0.0000       5.314434       144.6131 
 324   0.0000       5.437852       147.9715 
 325   0.0000       5.545390       150.8977 
 326   0.0000       5.615225       152.7980 
 327   0.0000       5.661692       154.0625 
 328   0.0000       5.697589       155.0393 
 329   0.0000       5.818842       158.3387 
 330   0.0000       5.847216       159.1108 
 331   0.0000       6.186698       168.3486 
 332   0.0000       6.432893       175.0479 
 333   0.0000       6.541505       178.0034 
 334   0.0000       6.688188       181.9948 
 335   0.0000       6.751431       183.7158 
 336   0.0000       7.077049       192.5763 
 337   0.0000       7.267001       197.7452 
 338   0.0000      22.252519       605.5218 
 339   0.0000      22.353804       608.2779 
 340   0.0000      22.384236       609.1060 
 341   0.0000      22.416709       609.9897 
 342   0.0000      22.431014       610.3789 
 343   0.0000      23.063584       627.5920 
 344   0.0000      32.441063       882.7662 
 345   0.0000      44.092908      1199.8290 

                    ********************************
                    * MULLIKEN POPULATION ANALYSIS *
                    ********************************

-----------------------
MULLIKEN ATOMIC CHARGES
-----------------------
   0 C :   -0.516471
   1 C :   -0.189389
   2 C :    0.059582
   3 N :   -0.169937
   4 C :   -0.267095
   5 C :   -0.384508
   6 C :   -0.179245
   7 O :   -0.202651
   8 H :    0.161503
   9 H :    0.166570
  10 H :    0.170759
  11 H :    0.170446
  12 H :    0.167951
  13 H :    0.167379
  14 H :    0.169705
  15 H :    0.168741
  16 H :    0.174253
  17 H :    0.159122
  18 H :    0.173286
Sum of atomic charges:   -0.0000000

--------------------------------
MULLIKEN REDUCED ORBITAL CHARGES
--------------------------------
  0 C s       :     3.373614  s :     3.373614
      pz      :     1.106737  p :     3.095321
      px      :     1.090992
      py      :     0.897593
      dz2     :     0.001707  d :     0.044450
      dxz     :     0.000977
      dyz     :     0.020659
      dx2y2   :     0.007168
      dxy     :     0.013939
      f0      :     0.000326  f :     0.003087
      f+1     :     0.000451
      f-1     :     0.000417
      f+2     :     0.000516
      f-2     :    -0.000010
      f+3     :     0.000938
      f-3     :     0.000449
  1 C s       :     3.180900  s :     3.180900
      pz      :     1.063567  p :     2.917212
      px      :     0.903923
      py      :     0.949723
      dz2     :     0.003671  d :     0.086306
      dxz     :     0.015836
      dyz     :     0.025624
      dx2y2   :     0.011765
      dxy     :     0.029410
      f0      :     0.000582  f :     0.004970
      f+1     :     0.000497
      f-1     :     0.000435
      f+2     :     0.000954
      f-2     :     0.000101
      f+3     :     0.001456
      f-3     :     0.000946
  2 C s       :     3.194157  s :     3.194157
      pz      :     0.896538  p :     2.481749
      px      :     0.883058
      py      :     0.702153
      dz2     :     0.006105  d :     0.245399
      dxz     :     0.039361
      dyz     :     0.053226
      dx2y2   :     0.083005
      dxy     :     0.063701
      f0      :     0.002483  f :     0.019113
      f+1     :     0.000958
      f-1     :     0.001559
      f+2     :     0.002778
      f-2     :     0.001632
      f+3     :     0.006135
      f-3     :     0.003567
  3 N s       :     3.686128  s :     3.686128
      pz      :     1.188019  p :     3.428537
      px      :     0.910786
      py      :     1.329732
      dz2     :     0.003597  d :     0.052356
      dxz     :     0.013002
      dyz     :     0.008724
      dx2y2   :     0.014440
      dxy     :     0.012594
      f0      :     0.000525  f :     0.002916
      f+1     :     0.000253
      f-1     :     0.000114
      f+2     :     0.000217
      f-2     :     0.000553
      f+3     :     0.000767
      f-3     :     0.000488
  4 C s       :     3.285647  s :     3.285647
      pz      :     1.078131  p :     2.857822
      px      :     0.837524
      py      :     0.942167
      dz2     :     0.012956  d :     0.116180
      dxz     :     0.027391
      dyz     :     0.013117
      dx2y2   :     0.019104
      dxy     :     0.043611
      f0      :     0.000868  f :     0.007446
      f+1     :     0.000701
      f-1     :     0.000693
      f+2     :     0.001003
      f-2     :     0.000460
      f+3     :     0.002118
      f-3     :     0.001601
  5 C s       :     3.356946  s :     3.356946
      pz      :     1.011961  p :     2.942887
      px      :     1.016289
      py      :     0.914637
      dz2     :     0.022332  d :     0.079703
      dxz     :     0.003674
      dyz     :     0.016087
      dx2y2   :     0.016400
      dxy     :     0.021209
      f0      :     0.000785  f :     0.004972
      f+1     :     0.000588
      f-1     :     0.000749
      f+2     :     0.000554
      f-2     :     0.000284
      f+3     :     0.001126
      f-3     :     0.000886
  6 C s       :     3.253264  s :     3.253264
      pz      :     1.054233  p :     2.787272
      px      :     0.712652
      py      :     1.020387
      dz2     :     0.025634  d :     0.129069
      dxz     :     0.032369
      dyz     :     0.008852
      dx2y2   :     0.040455
      dxy     :     0.021760
      f0      :     0.001482  f :     0.009640
      f+1     :     0.001265
      f-1     :     0.000512
      f+2     :     0.001081
      f-2     :     0.001192
      f+3     :     0.002207
      f-3     :     0.001902
  7 O s       :     3.805832  s :     3.805832
      pz      :     1.701245  p :     4.357101
      px      :     1.384730
      py      :     1.271126
      dz2     :     0.003952  d :     0.037870
      dxz     :     0.004555
      dyz     :     0.006312
      dx2y2   :     0.013556
      dxy     :     0.009495
      f0      :     0.000263  f :     0.001848
      f+1     :     0.000219
      f-1     :     0.000269
      f+2     :     0.000220
      f-2     :     0.000097
      f+3     :     0.000409
      f-3     :     0.000369
  8 H s       :     0.818190  s :     0.818190
      pz      :     0.004634  p :     0.020307
      px      :     0.010707
      py      :     0.004966
  9 H s       :     0.813147  s :     0.813147
      pz      :     0.009038  p :     0.020282
      px      :     0.005894
      py      :     0.005350
 10 H s       :     0.808933  s :     0.808933
      pz      :     0.008280  p :     0.020307
      px      :     0.006019
      py      :     0.006008
 11 H s       :     0.809056  s :     0.809056
      pz      :     0.008418  p :     0.020499
      px      :     0.005925
      py      :     0.006156
 12 H s       :     0.811506  s :     0.811506
      pz      :     0.009159  p :     0.020543
      px      :     0.005950
      py      :     0.005433
 13 H s       :     0.812779  s :     0.812779
      pz      :     0.010412  p :     0.019842
      px      :     0.005139
      py      :     0.004291
 14 H s       :     0.810137  s :     0.810137
      pz      :     0.006710  p :     0.020158
      px      :     0.006112
      py      :     0.007335
 15 H s       :     0.810490  s :     0.810490
      pz      :     0.004481  p :     0.020770
      px      :     0.010580
      py      :     0.005709
 16 H s       :     0.805550  s :     0.805550
      pz      :     0.011621  p :     0.020197
      px      :     0.004276
      py      :     0.004300
 17 H s       :     0.821641  s :     0.821641
      pz      :     0.011769  p :     0.019237
      px      :     0.003427
      py      :     0.004041
 18 H s       :     0.807140  s :     0.807140
      pz      :     0.005066  p :     0.019574
      px      :     0.003095
      py      :     0.011413


                     *******************************
                     * LOEWDIN POPULATION ANALYSIS *
                     *******************************

----------------------
LOEWDIN ATOMIC CHARGES
----------------------
   0 C :   -0.372773
   1 C :   -0.299171
   2 C :   -0.434984
   3 N :    0.008377
   4 C :   -0.348082
   5 C :   -0.329980
   6 C :   -0.329556
   7 O :    0.125153
   8 H :    0.152553
   9 H :    0.165264
  10 H :    0.166332
  11 H :    0.195734
  12 H :    0.194777
  13 H :    0.186239
  14 H :    0.180070
  15 H :    0.182289
  16 H :    0.192893
  17 H :    0.185835
  18 H :    0.179028

-------------------------------
LOEWDIN REDUCED ORBITAL CHARGES
-------------------------------
  0 C s       :     2.838927  s :     2.838927
      pz      :     1.109965  p :     3.262230
      px      :     1.092095
      py      :     1.060170
      dz2     :     0.033341  d :     0.247761
      dxz     :     0.017622
      dyz     :     0.078303
      dx2y2   :     0.061857
      dxy     :     0.056638
      f0      :     0.002128  f :     0.023855
      f+1     :     0.002737
      f-1     :     0.003321
      f+2     :     0.003065
      f-2     :     0.003037
      f+3     :     0.005954
      f-3     :     0.003611
  1 C s       :     2.771114  s :     2.771114
      pz      :     1.045847  p :     3.117308
      px      :     1.017964
      py      :     1.053497
      dz2     :     0.039489  d :     0.374038
      dxz     :     0.065866
      dyz     :     0.085194
      dx2y2   :     0.084066
      dxy     :     0.099422
      f0      :     0.003612  f :     0.036712
      f+1     :     0.003878
      f-1     :     0.003853
      f+2     :     0.005271
      f-2     :     0.004281
      f+3     :     0.008891
      f-3     :     0.006926
  2 C s       :     2.714362  s :     2.714362
      pz      :     0.833801  p :     2.795211
      px      :     1.056543
      py      :     0.904867
      dz2     :     0.058463  d :     0.814249
      dxz     :     0.100265
      dyz     :     0.146580
      dx2y2   :     0.295605
      dxy     :     0.213336
      f0      :     0.006671  f :     0.111161
      f+1     :     0.005515
      f-1     :     0.010033
      f+2     :     0.016123
      f-2     :     0.010575
      f+3     :     0.039411
      f-3     :     0.022834
  3 N s       :     3.046611  s :     3.046611
      pz      :     1.123521  p :     3.726344
      px      :     1.175620
      py      :     1.427203
      dz2     :     0.017977  d :     0.201323
      dxz     :     0.043515
      dyz     :     0.012471
      dx2y2   :     0.060899
      dxy     :     0.066460
      f0      :     0.001332  f :     0.017345
      f+1     :     0.002064
      f-1     :     0.000870
      f+2     :     0.000757
      f-2     :     0.002830
      f+3     :     0.005336
      f-3     :     0.004156
  4 C s       :     2.777659  s :     2.777659
      pz      :     1.065236  p :     3.051994
      px      :     0.945376
      py      :     1.041382
      dz2     :     0.065876  d :     0.467697
      dxz     :     0.096177
      dyz     :     0.063951
      dx2y2   :     0.092945
      dxy     :     0.148746
      f0      :     0.005306  f :     0.050732
      f+1     :     0.004871
      f-1     :     0.004922
      f+2     :     0.006324
      f-2     :     0.005646
      f+3     :     0.012866
      f-3     :     0.010798
  5 C s       :     2.780436  s :     2.780436
      pz      :     1.051729  p :     3.136949
      px      :     1.033327
      py      :     1.051893
      dz2     :     0.105635  d :     0.374840
      dxz     :     0.031911
      dyz     :     0.066722
      dx2y2   :     0.080903
      dxy     :     0.089670
      f0      :     0.003915  f :     0.037755
      f+1     :     0.004041
      f-1     :     0.005109
      f+2     :     0.006591
      f-2     :     0.005758
      f+3     :     0.006340
      f-3     :     0.006002
  6 C s       :     2.785897  s :     2.785897
      pz      :     1.071670  p :     2.972260
      px      :     0.879945
      py      :     1.020645
      dz2     :     0.112415  d :     0.505321
      dxz     :     0.106349
      dyz     :     0.039395
      dx2y2   :     0.156938
      dxy     :     0.090225
      f0      :     0.007681  f :     0.066078
      f+1     :     0.008808
      f-1     :     0.003319
      f+2     :     0.009073
      f-2     :     0.009806
      f+3     :     0.014295
      f-3     :     0.013096
  7 O s       :     3.274416  s :     3.274416
      pz      :     1.610243  p :     4.483673
      px      :     1.474287
      py      :     1.399143
      dz2     :     0.011534  d :     0.110234
      dxz     :     0.011911
      dyz     :     0.016083
      dx2y2   :     0.038713
      dxy     :     0.031993
      f0      :     0.000612  f :     0.006524
      f+1     :     0.000467
      f-1     :     0.000735
      f+2     :     0.000913
      f-2     :     0.000316
      f+3     :     0.002068
      f-3     :     0.001413
  8 H s       :     0.785858  s :     0.785858
      pz      :     0.014256  p :     0.061589
      px      :     0.033512
      py      :     0.013821
  9 H s       :     0.772484  s :     0.772484
      pz      :     0.029019  p :     0.062252
      px      :     0.018039
      py      :     0.015194
 10 H s       :     0.771154  s :     0.771154
      pz      :     0.026959  p :     0.062514
      px      :     0.018360
      py      :     0.017196
 11 H s       :     0.744657  s :     0.744657
      pz      :     0.025779  p :     0.059610
      px      :     0.016286
      py      :     0.017545
 12 H s       :     0.745659  s :     0.745659
      pz      :     0.027693  p :     0.059564
      px      :     0.016385
      py      :     0.015486
 13 H s       :     0.754838  s :     0.754838
      pz      :     0.031925  p :     0.058922
      px      :     0.014190
      py      :     0.012806
 14 H s       :     0.761467  s :     0.761467
      pz      :     0.021321  p :     0.058463
      px      :     0.016562
      py      :     0.020580
 15 H s       :     0.757384  s :     0.757384
      pz      :     0.014299  p :     0.060326
      px      :     0.029499
      py      :     0.016529
 16 H s       :     0.747016  s :     0.747016
      pz      :     0.033145  p :     0.060091
      px      :     0.013644
      py      :     0.013302
 17 H s       :     0.754928  s :     0.754928
      pz      :     0.036108  p :     0.059237
      px      :     0.010711
      py      :     0.012418
 18 H s       :     0.762076  s :     0.762076
      pz      :     0.016467  p :     0.058896
      px      :     0.009437
      py      :     0.032992


                      *****************************
                      * MAYER POPULATION ANALYSIS *
                      *****************************

  NA   - Mulliken gross atomic population
  ZA   - Total nuclear charge
  QA   - Mulliken gross atomic charge
  VA   - Mayer's total valence
  BVA  - Mayer's bonded valence
  FA   - Mayer's free valence

  ATOM       NA         ZA         QA         VA         BVA        FA
  0 C      6.5165     6.0000    -0.5165     3.8604     3.8604    -0.0000
  1 C      6.1894     6.0000    -0.1894     3.6106     3.6106    -0.0000
  2 C      5.9404     6.0000     0.0596     3.9547     3.9547     0.0000
  3 N      7.1699     7.0000    -0.1699     2.7923     2.7923     0.0000
  4 C      6.2671     6.0000    -0.2671     3.8451     3.8451     0.0000
  5 C      6.3845     6.0000    -0.3845     3.8444     3.8444    -0.0000
  6 C      6.1792     6.0000    -0.1792     3.7730     3.7730    -0.0000
  7 O      8.2027     8.0000    -0.2027     1.9691     1.9691    -0.0000
  8 H      0.8385     1.0000     0.1615     0.9517     0.9517    -0.0000
  9 H      0.8334     1.0000     0.1666     0.9578     0.9578    -0.0000
 10 H      0.8292     1.0000     0.1708     0.9559     0.9559    -0.0000
 11 H      0.8296     1.0000     0.1704     0.9470     0.9470    -0.0000
 12 H      0.8320     1.0000     0.1680     0.9465     0.9465    -0.0000
 13 H      0.8326     1.0000     0.1674     0.9429     0.9429     0.0000
 14 H      0.8303     1.0000     0.1697     0.9348     0.9348     0.0000
 15 H      0.8313     1.0000     0.1687     0.9547     0.9547     0.0000
 16 H      0.8257     1.0000     0.1743     0.9496     0.9496    -0.0000
 17 H      0.8409     1.0000     0.1591     0.9545     0.9545    -0.0000
 18 H      0.8267     1.0000     0.1733     0.9413     0.9413     0.0000

  Mayer bond orders larger than 0.1
B(  0-C ,  1-C ) :   0.8819 B(  0-C ,  8-H ) :   0.9641 B(  0-C ,  9-H ) :   0.9790 
B(  0-C , 10-H ) :   0.9845 B(  1-C ,  2-C ) :   0.9464 B(  1-C , 11-H ) :   0.9575 
B(  1-C , 12-H ) :   0.9474 B(  2-C ,  3-N ) :   1.8023 B(  2-C ,  7-O ) :   1.0787 
B(  3-N ,  4-C ) :   0.9379 B(  4-C ,  5-C ) :   0.9242 B(  4-C , 13-H ) :   0.9607 
B(  4-C , 14-H ) :   0.9606 B(  5-C ,  6-C ) :   0.9297 B(  5-C , 15-H ) :   0.9497 
B(  5-C , 16-H ) :   1.0127 B(  6-C ,  7-O ) :   0.8814 B(  6-C , 17-H ) :   0.9661 
B(  6-C , 18-H ) :   0.9624 

-------
TIMINGS
-------

Total SCF time: 0 days 0 hours 0 min 24 sec 

Total time                  ....      24.127 sec
Sum of individual times     ....      23.463 sec  ( 97.2%)

Fock matrix formation       ....      18.008 sec  ( 74.6%)
  Split-RI-J                ....       6.757 sec  ( 37.5% of F)
  XC integration            ....       9.998 sec  ( 55.5% of F)
    Basis function eval.    ....       3.337 sec  ( 33.4% of XC)
    Density eval.           ....       2.754 sec  ( 27.5% of XC)
    XC-Functional eval.     ....       0.179 sec  (  1.8% of XC)
    XC-Potential eval.      ....       2.315 sec  ( 23.2% of XC)
Diagonalization             ....       0.806 sec  (  3.3%)
Density matrix formation    ....       0.065 sec  (  0.3%)
Population analysis         ....       0.141 sec  (  0.6%)
Initial guess               ....       0.953 sec  (  4.0%)
Orbital Transformation      ....       0.000 sec  (  0.0%)
Orbital Orthonormalization  ....       0.000 sec  (  0.0%)
DIIS solution               ....       0.525 sec  (  2.2%)
SOSCF solution              ....       0.552 sec  (  2.3%)
Grid generation             ....       2.413 sec  ( 10.0%)
--------------------------------------------------------------------------
WARNING: Open MPI failed to open the /dev/knem device due to a local
error. Please check with your system administrator to get the problem
fixed, or set the btl_vader_single_copy_mechanism MCA variable to none
to silence this warning and run without knem support.

The vader shared memory BTL will fall back on another single-copy
mechanism if one is available. This may result in lower performance.

  Local host: ganbo135
  Errno:      2 (No such file or directory)
--------------------------------------------------------------------------
--------------------------------------------------------------------------
WARNING: Linux kernel knem support was requested via the
btl_vader_single_copy_mechanism MCA parameter, but Knem support was either not
compiled into this Open MPI installation, or Knem support was unable
to be activated in this process.

The vader BTL will fall back on another single-copy mechanism if one
is available. This may result in lower performance.

  Local host: ganbo135
--------------------------------------------------------------------------


           ************************************************************
           *        Program running with 12 parallel MPI-processes    *
           *              working on a common directory               *
           ************************************************************
------------------------------------------------------------------------------
                        ORCA TD-DFT/TDA CALCULATION
------------------------------------------------------------------------------

Input orbitals are from        ... 14624.gbw
CI-vector output               ... 14624.cis
Tamm-Dancoff approximation     ... operative
CIS-Integral strategy          ... AO-integrals
Integral handling              ... AO integral Direct
Max. core memory used          ... 512 MB
Reference state                ... RHF
Generation of triplets         ... off
Number of operators            ... 1
Orbital ranges used for CIS calculation:
 Operator 0:  Orbitals   8... 30  to  31...345
XAS localization array:
 Operator 0:  Orbitals  -1... -1
-------------------
XC-INTEGRATION GRID
-------------------

General Integration Accuracy     IntAcc      ...  3.670
Radial Grid Type                 RadialGrid  ... Gauss-Chebyshev
Angular Grid (max. acc.)         AngularGrid ... Lebedev-50
Angular grid pruning method      GridPruning ... 3 (G Style)
Weight generation scheme         WeightScheme... Becke
Basis function cutoff            BFCut       ...    1.0000e-11
Integration weight cutoff        WCut        ...    1.0000e-14
Grids for H and He will be reduced by one unit

# of grid points (after initial pruning)     ...  10468 (   0.0 sec)
# of grid points (after weights+screening)   ...   9657 (   0.0 sec)
nearest neighbour list constructed           ...    0.0 sec
Grid point re-assignment to atoms done       ...    0.0 sec
Grid point division into batches done        ...    0.0 sec
Reduced shell lists constructed in    0.0 sec

Total number of grid points                  ...     9657
Total number of batches                      ...      162
Average number of points per batch           ...       59
Average number of grid points per atom       ...      508
Average number of shells per batch           ...   105.00 (70.95%)
Average number of basis functions per batch  ...   248.07 (71.70%)
Average number of large shells per batch     ...    86.60 (82.48%)
Average number of large basis fcns per batch ...   200.33 (80.76%)
Maximum spatial batch extension              ...   3.69,  3.29,  2.51 au
Average spatial batch extension              ...   0.15,  0.16,  0.15 au


---------------
TD-DFT XC SETUP
---------------

DFT calculation                         ... on
Name of the grid file                   ... 14624.grid_cis.tmp
RI-approximation                        ... on
Aux-basis dimension                     ... 513
Exchange functional (SCF)               ... Slater
Exchange functional (TD-DFT)            ... Slater
   X-Alpha parameter    XAlpha (SCF)    ...  0.666667
   X-Alpha parameter    XAlpha (TD-DFT) ...  0.666667
Correlation functional (SCF)            ... VWN-5
Correlation functional (TD-DFT)         ... VWN-5

Building densities             ... done
Calculating rho(r) on the grid ... done
Building xc-kernel on the grid ... done
                    *** TD-DFT CALCULATION INITIALIZED ***


------------------------
DAVIDSON-DIAGONALIZATION
------------------------

Dimension of the eigenvalue problem            ...   7245
Number of roots to be determined               ...     50
Maximum size of the expansion space            ...   7245
Convergence tolerance for the residual         ...    2.500e-07
Convergence tolerance for the energies         ...    2.500e-07
Orthogonality tolerance                        ...    1.000e-14
Level Shift                                    ...    0.000e+00
Constructing the preconditioner                ... o.k.
Building the initial guess                     ... o.k.
Number of trial vectors determined             ...    512


                       ****Iteration    0****

   Memory handling for direct AO based CIS:
   Memory per vector needed      ...     4 MB
   Memory needed                 ...   713 MB
   Memory available              ...   512 MB
   Number of vectors per batch   ...   107
   Number of batches             ...     2
   Time for densities:     1.949
   Time for RI-J (Direct):    25.184
   Time for XC-Integration:     7.361
   Time for Sigma-Completion:     3.870
   Time for densities:     0.869
   Time for RI-J (Direct):    10.027
   Time for XC-Integration:     2.924
   Time for Sigma-Completion:     1.706
   Size of expansion space: 150
   Lowest Energy          :     0.189586527529
   Maximum Energy change  :     0.306227692092 (vector 49)
   Maximum residual norm  :     0.001673291827

                       ****Iteration    1****
   Time for densities:     0.889
   Time for RI-J (Direct):    11.677
   Time for XC-Integration:     3.487
   Time for Sigma-Completion:     1.688
   Size of expansion space: 200
   Lowest Energy          :     0.188911664914
   Maximum Energy change  :     0.002294163992 (vector 49)
   Maximum residual norm  :     0.000057501926

                       ****Iteration    2****
   Time for densities:     0.964
   Time for RI-J (Direct):    11.702
   Time for XC-Integration:     3.556
   Time for Sigma-Completion:     1.766
   Size of expansion space: 250
   Lowest Energy          :     0.188908312320
   Maximum Energy change  :     0.000036419713 (vector 34)
   Maximum residual norm  :     0.000000104376

      *** CONVERGENCE OF RESIDUAL NORM REACHED ***

Storing the converged CI vectors               ... 14624.cis1

                 *** DAVIDSON DONE ***

Total time for solving the CIS problem:   294.908sec

------------------------------------
TD-DFT/TDA EXCITED STATES (SINGLETS)
------------------------------------

the weight of the individual excitations are printed if larger than 0.01

STATE  1:  E=   0.188908 au      5.140 eV    41460.6 cm**-1
    30a ->  31a  :     0.866264 (c=  0.93073314)
    30a ->  32a  :     0.121586 (c= -0.34869194)

STATE  2:  E=   0.203407 au      5.535 eV    44642.8 cm**-1
    29a ->  31a  :     0.187363 (c=  0.43285503)
    29a ->  32a  :     0.022674 (c= -0.15057860)
    30a ->  31a  :     0.069168 (c= -0.26299869)
    30a ->  32a  :     0.654429 (c= -0.80896793)
    30a ->  33a  :     0.046114 (c= -0.21474140)
    30a ->  34a  :     0.010741 (c= -0.10363666)

STATE  3:  E=   0.206374 au      5.616 eV    45293.8 cm**-1
    29a ->  31a  :     0.471921 (c=  0.68696514)
    29a ->  32a  :     0.318568 (c= -0.56441784)
    30a ->  31a  :     0.020365 (c=  0.14270648)
    30a ->  32a  :     0.140119 (c=  0.37432473)
    30a ->  33a  :     0.027413 (c=  0.16556806)

STATE  4:  E=   0.211868 au      5.765 eV    46499.7 cm**-1
    30a ->  31a  :     0.014998 (c=  0.12246544)
    30a ->  32a  :     0.044723 (c=  0.21147872)
    30a ->  33a  :     0.906050 (c= -0.95186638)
    30a ->  34a  :     0.022445 (c=  0.14981681)

STATE  5:  E=   0.217678 au      5.923 eV    47774.8 cm**-1
    30a ->  32a  :     0.013678 (c= -0.11695382)
    30a ->  33a  :     0.011962 (c=  0.10936880)
    30a ->  34a  :     0.953501 (c=  0.97647398)

STATE  6:  E=   0.219422 au      5.971 eV    48157.5 cm**-1
    30a ->  35a  :     0.992444 (c=  0.99621478)

STATE  7:  E=   0.223539 au      6.083 eV    49061.2 cm**-1
    29a ->  31a  :     0.038616 (c= -0.19650828)
    29a ->  32a  :     0.182332 (c= -0.42700300)
    29a ->  33a  :     0.738582 (c= -0.85940808)
    29a ->  34a  :     0.010692 (c= -0.10340164)

STATE  8:  E=   0.229322 au      6.240 eV    50330.4 cm**-1
    29a ->  33a  :     0.028014 (c= -0.16737335)
    29a ->  34a  :     0.026061 (c=  0.16143476)
    30a ->  36a  :     0.931190 (c=  0.96498188)

STATE  9:  E=   0.231537 au      6.300 eV    50816.5 cm**-1
    29a ->  32a  :     0.026355 (c=  0.16234098)
    29a ->  33a  :     0.042414 (c= -0.20594672)
    29a ->  34a  :     0.870439 (c=  0.93297347)
    30a ->  36a  :     0.043812 (c= -0.20931355)

STATE 10:  E=   0.234422 au      6.379 eV    51449.7 cm**-1
    29a ->  35a  :     0.995601 (c=  0.99779816)

STATE 11:  E=   0.237332 au      6.458 eV    52088.3 cm**-1
    30a ->  37a  :     0.995055 (c= -0.99752429)

STATE 12:  E=   0.243413 au      6.624 eV    53423.1 cm**-1
    28a ->  31a  :     0.032601 (c=  0.18055874)
    29a ->  31a  :     0.098091 (c=  0.31319439)
    29a ->  32a  :     0.186792 (c=  0.43219383)
    29a ->  33a  :     0.102702 (c= -0.32047146)
    29a ->  34a  :     0.056629 (c= -0.23796899)
    29a ->  36a  :     0.293764 (c=  0.54199961)
    29a ->  39a  :     0.113344 (c=  0.33666541)
    30a ->  38a  :     0.016254 (c=  0.12749102)
    30a ->  39a  :     0.034500 (c=  0.18574069)

STATE 13:  E=   0.245758 au      6.687 eV    53937.7 cm**-1
    28a ->  31a  :     0.010842 (c= -0.10412651)
    29a ->  31a  :     0.027638 (c= -0.16624707)
    29a ->  32a  :     0.049982 (c= -0.22356632)
    29a ->  33a  :     0.024298 (c=  0.15587757)
    29a ->  34a  :     0.012659 (c=  0.11251267)
    29a ->  36a  :     0.661100 (c=  0.81308048)
    29a ->  39a  :     0.059132 (c= -0.24316973)
    30a ->  38a  :     0.072582 (c= -0.26941066)
    30a ->  39a  :     0.054845 (c= -0.23419066)

STATE 14:  E=   0.246372 au      6.704 eV    54072.4 cm**-1
    29a ->  32a  :     0.011321 (c= -0.10639919)
    29a ->  36a  :     0.020603 (c=  0.14353723)
    29a ->  39a  :     0.014061 (c= -0.11857749)
    30a ->  38a  :     0.899893 (c=  0.94862703)
    30a ->  39a  :     0.034452 (c= -0.18561192)

STATE 15:  E=   0.250801 au      6.825 eV    55044.4 cm**-1
    28a ->  31a  :     0.018073 (c=  0.13443757)
    29a ->  32a  :     0.014277 (c=  0.11948532)
    29a ->  36a  :     0.012665 (c= -0.11253712)
    29a ->  39a  :     0.031581 (c=  0.17771051)
    30a ->  39a  :     0.828655 (c= -0.91030505)
    30a ->  40a  :     0.035855 (c= -0.18935333)

STATE 16:  E=   0.252878 au      6.881 eV    55500.4 cm**-1
    29a ->  37a  :     0.991296 (c= -0.99563870)

STATE 17:  E=   0.257280 au      7.001 eV    56466.4 cm**-1
    28a ->  31a  :     0.024142 (c= -0.15537685)
    30a ->  39a  :     0.019614 (c=  0.14004826)
    30a ->  40a  :     0.934224 (c= -0.96655277)

STATE 18:  E=   0.258105 au      7.023 eV    56647.5 cm**-1
    28a ->  31a  :     0.745815 (c= -0.86360574)
    28a ->  32a  :     0.149133 (c=  0.38617782)
    29a ->  39a  :     0.044068 (c=  0.20992290)
    30a ->  40a  :     0.016775 (c=  0.12951809)

STATE 19:  E=   0.261797 au      7.124 eV    57457.7 cm**-1
    29a ->  38a  :     0.990890 (c=  0.99543463)

STATE 20:  E=   0.263238 au      7.163 eV    57774.1 cm**-1
    29a ->  39a  :     0.025371 (c= -0.15928319)
    30a ->  41a  :     0.963222 (c= -0.98143851)

STATE 21:  E=   0.264672 au      7.202 eV    58088.8 cm**-1
    29a ->  39a  :     0.017866 (c=  0.13366401)
    30a ->  42a  :     0.970560 (c= -0.98517008)

STATE 22:  E=   0.269139 au      7.324 eV    59069.2 cm**-1
    27a ->  31a  :     0.911741 (c=  0.95485133)
    27a ->  32a  :     0.027173 (c= -0.16484381)
    29a ->  39a  :     0.022180 (c= -0.14892998)

STATE 23:  E=   0.270541 au      7.362 eV    59377.0 cm**-1
    27a ->  31a  :     0.037501 (c=  0.19365137)
    28a ->  32a  :     0.110621 (c= -0.33259697)
    29a ->  39a  :     0.251468 (c=  0.50146537)
    29a ->  40a  :     0.527783 (c=  0.72648672)
    29a ->  42a  :     0.020531 (c= -0.14328687)

STATE 24:  E=   0.273200 au      7.434 eV    59960.6 cm**-1
    28a ->  31a  :     0.067144 (c=  0.25912169)
    28a ->  32a  :     0.529046 (c=  0.72735573)
    28a ->  33a  :     0.120009 (c=  0.34642299)
    29a ->  40a  :     0.225574 (c=  0.47494666)

STATE 25:  E=   0.276011 au      7.511 eV    60577.3 cm**-1
    28a ->  31a  :     0.011344 (c=  0.10650954)
    28a ->  32a  :     0.035573 (c=  0.18860699)
    28a ->  33a  :     0.037600 (c=  0.19390602)
    29a ->  31a  :     0.013918 (c= -0.11797518)
    29a ->  32a  :     0.017697 (c= -0.13303085)
    29a ->  39a  :     0.170941 (c=  0.41345037)
    29a ->  40a  :     0.161310 (c= -0.40163469)
    29a ->  41a  :     0.186307 (c= -0.43163335)
    29a ->  42a  :     0.270423 (c= -0.52002212)
    30a ->  44a  :     0.021508 (c= -0.14665773)

STATE 26:  E=   0.277030 au      7.538 eV    60801.1 cm**-1
    28a ->  33a  :     0.018508 (c= -0.13604424)
    30a ->  43a  :     0.971767 (c= -0.98578240)

STATE 27:  E=   0.279163 au      7.596 eV    61269.2 cm**-1
    29a ->  41a  :     0.703198 (c= -0.83856892)
    29a ->  42a  :     0.241094 (c=  0.49101315)
    30a ->  44a  :     0.025566 (c=  0.15989507)

STATE 28:  E=   0.279840 au      7.615 eV    61417.9 cm**-1
    28a ->  33a  :     0.028798 (c=  0.16969853)
    29a ->  42a  :     0.054022 (c= -0.23242709)
    30a ->  44a  :     0.905714 (c=  0.95169011)

STATE 29:  E=   0.280502 au      7.633 eV    61563.1 cm**-1
    27a ->  32a  :     0.015493 (c=  0.12447202)
    28a ->  31a  :     0.021158 (c=  0.14545639)
    28a ->  32a  :     0.079276 (c=  0.28156060)
    28a ->  33a  :     0.740064 (c= -0.86026958)
    28a ->  34a  :     0.011640 (c=  0.10788880)
    29a ->  41a  :     0.012001 (c= -0.10955088)
    29a ->  42a  :     0.047033 (c= -0.21687088)
    30a ->  44a  :     0.016180 (c=  0.12719904)
    30a ->  45a  :     0.017590 (c=  0.13262739)

STATE 30:  E=   0.282940 au      7.699 eV    62098.1 cm**-1
    25a ->  31a  :     0.011488 (c= -0.10718271)
    27a ->  31a  :     0.026956 (c= -0.16418251)
    27a ->  32a  :     0.907023 (c= -0.95237748)
    28a ->  33a  :     0.012437 (c= -0.11152279)

STATE 31:  E=   0.284143 au      7.732 eV    62362.2 cm**-1
    26a ->  31a  :     0.044559 (c= -0.21109069)
    28a ->  33a  :     0.012471 (c=  0.11167539)
    28a ->  34a  :     0.013800 (c= -0.11747215)
    29a ->  42a  :     0.016844 (c= -0.12978302)
    30a ->  45a  :     0.854499 (c=  0.92439094)
    30a ->  46a  :     0.023523 (c=  0.15337272)

STATE 32:  E=   0.284727 au      7.748 eV    62490.3 cm**-1
    26a ->  31a  :     0.784295 (c= -0.88560455)
    26a ->  32a  :     0.039996 (c=  0.19999005)
    28a ->  34a  :     0.021937 (c= -0.14811264)
    29a ->  42a  :     0.021255 (c= -0.14578956)
    29a ->  43a  :     0.017568 (c= -0.13254259)
    30a ->  45a  :     0.059690 (c= -0.24431443)

STATE 33:  E=   0.285745 au      7.776 eV    62713.8 cm**-1
    26a ->  31a  :     0.072265 (c= -0.26882127)
    28a ->  34a  :     0.702801 (c=  0.83833226)
    28a ->  35a  :     0.036094 (c=  0.18998457)
    29a ->  39a  :     0.025625 (c=  0.16007917)
    29a ->  41a  :     0.017894 (c=  0.13376808)
    29a ->  42a  :     0.066374 (c=  0.25763097)
    30a ->  45a  :     0.013861 (c=  0.11773400)

STATE 34:  E=   0.287058 au      7.811 eV    63001.9 cm**-1
    28a ->  34a  :     0.167994 (c= -0.40987072)
    28a ->  35a  :     0.606796 (c=  0.77897082)
    29a ->  39a  :     0.027996 (c=  0.16731965)
    29a ->  41a  :     0.010017 (c=  0.10008712)
    29a ->  42a  :     0.062423 (c=  0.24984532)
    29a ->  44a  :     0.013562 (c= -0.11645740)

STATE 35:  E=   0.288754 au      7.857 eV    63374.1 cm**-1
    23a ->  31a  :     0.012502 (c=  0.11181110)
    25a ->  31a  :     0.054330 (c=  0.23308774)
    27a ->  33a  :     0.015284 (c= -0.12362742)
    28a ->  34a  :     0.052026 (c=  0.22809272)
    28a ->  35a  :     0.332168 (c=  0.57634020)
    29a ->  31a  :     0.021148 (c=  0.14542512)
    29a ->  32a  :     0.026372 (c=  0.16239604)
    29a ->  39a  :     0.076767 (c= -0.27706900)
    29a ->  40a  :     0.017918 (c=  0.13385885)
    29a ->  41a  :     0.025631 (c= -0.16009577)
    29a ->  42a  :     0.117930 (c= -0.34340990)
    29a ->  43a  :     0.038549 (c= -0.19633893)
    29a ->  44a  :     0.062251 (c=  0.24950146)
    30a ->  46a  :     0.013491 (c=  0.11615118)

STATE 36:  E=   0.289541 au      7.879 eV    63546.9 cm**-1
    25a ->  31a  :     0.199201 (c=  0.44631884)
    27a ->  33a  :     0.014807 (c= -0.12168527)
    30a ->  45a  :     0.013319 (c=  0.11540891)
    30a ->  46a  :     0.749216 (c= -0.86557274)

STATE 37:  E=   0.290164 au      7.896 eV    63683.6 cm**-1
    25a ->  31a  :     0.698790 (c=  0.83593653)
    29a ->  42a  :     0.011735 (c=  0.10832764)
    30a ->  46a  :     0.184246 (c=  0.42923884)

STATE 38:  E=   0.292534 au      7.960 eV    64203.8 cm**-1
    25a ->  31a  :     0.017623 (c=  0.13275049)
    26a ->  32a  :     0.010916 (c= -0.10447853)
    27a ->  33a  :     0.785800 (c=  0.88645377)
    29a ->  43a  :     0.130783 (c= -0.36163924)
    30a ->  47a  :     0.031576 (c= -0.17769650)

STATE 39:  E=   0.292803 au      7.968 eV    64262.9 cm**-1
    26a ->  32a  :     0.019086 (c=  0.13815184)
    27a ->  33a  :     0.116900 (c=  0.34190668)
    29a ->  43a  :     0.731105 (c=  0.85504701)
    29a ->  44a  :     0.049843 (c=  0.22325613)
    30a ->  47a  :     0.027850 (c= -0.16688453)

STATE 40:  E=   0.294348 au      8.010 eV    64601.9 cm**-1
    27a ->  33a  :     0.036209 (c= -0.19028646)
    29a ->  44a  :     0.060957 (c= -0.24689452)
    30a ->  47a  :     0.861793 (c= -0.92832821)

STATE 41:  E=   0.296782 au      8.076 eV    65136.1 cm**-1
    26a ->  32a  :     0.015379 (c= -0.12401166)
    28a ->  36a  :     0.033168 (c=  0.18212098)
    29a ->  44a  :     0.301821 (c=  0.54938269)
    30a ->  47a  :     0.024736 (c= -0.15727621)
    30a ->  48a  :     0.557046 (c= -0.74635510)
    30a ->  49a  :     0.010199 (c=  0.10098774)

STATE 42:  E=   0.297071 au      8.084 eV    65199.5 cm**-1
    26a ->  32a  :     0.036077 (c= -0.18993838)
    27a ->  34a  :     0.016158 (c= -0.12711369)
    28a ->  36a  :     0.016569 (c= -0.12872038)
    29a ->  39a  :     0.016603 (c= -0.12885189)
    29a ->  42a  :     0.011213 (c= -0.10589182)
    29a ->  43a  :     0.012744 (c=  0.11289130)
    29a ->  44a  :     0.413382 (c= -0.64294818)
    29a ->  45a  :     0.013529 (c=  0.11631468)
    30a ->  48a  :     0.370849 (c= -0.60897375)
    30a ->  49a  :     0.014777 (c= -0.12155872)

STATE 43:  E=   0.297925 au      8.107 eV    65387.0 cm**-1
    26a ->  32a  :     0.031645 (c= -0.17789025)
    28a ->  36a  :     0.879549 (c= -0.93784275)
    29a ->  44a  :     0.030851 (c=  0.17564423)
    29a ->  45a  :     0.011465 (c=  0.10707590)

STATE 44:  E=   0.298559 au      8.124 eV    65526.1 cm**-1
    26a ->  31a  :     0.031816 (c=  0.17837083)
    26a ->  32a  :     0.698560 (c=  0.83579924)
    26a ->  33a  :     0.012526 (c=  0.11191896)
    27a ->  34a  :     0.062472 (c= -0.24994378)
    28a ->  36a  :     0.028454 (c= -0.16868386)
    29a ->  43a  :     0.021063 (c= -0.14513180)
    29a ->  45a  :     0.051784 (c=  0.22756035)
    30a ->  48a  :     0.033364 (c= -0.18265680)

STATE 45:  E=   0.299550 au      8.151 eV    65743.6 cm**-1
    26a ->  32a  :     0.032607 (c=  0.18057416)
    27a ->  34a  :     0.851447 (c=  0.92273912)
    29a ->  44a  :     0.011137 (c= -0.10552982)
    29a ->  45a  :     0.053894 (c=  0.23215011)

STATE 46:  E=   0.300076 au      8.165 eV    65859.1 cm**-1
    26a ->  32a  :     0.038908 (c=  0.19725227)
    27a ->  34a  :     0.024562 (c=  0.15672410)
    28a ->  36a  :     0.023971 (c= -0.15482718)
    29a ->  45a  :     0.845631 (c= -0.91958222)
    30a ->  48a  :     0.013974 (c= -0.11820993)

STATE 47:  E=   0.301180 au      8.196 eV    66101.4 cm**-1
    27a ->  35a  :     0.952688 (c= -0.97605713)

STATE 48:  E=   0.302311 au      8.226 eV    66349.5 cm**-1
    24a ->  31a  :     0.923920 (c= -0.96120775)
    25a ->  32a  :     0.018301 (c=  0.13527942)
    30a ->  49a  :     0.033947 (c=  0.18424821)

STATE 49:  E=   0.303296 au      8.253 eV    66565.7 cm**-1
    25a ->  32a  :     0.670268 (c=  0.81869886)
    30a ->  49a  :     0.289292 (c= -0.53785905)

STATE 50:  E=   0.303899 au      8.269 eV    66698.0 cm**-1
    24a ->  31a  :     0.041301 (c= -0.20322604)
    25a ->  32a  :     0.290557 (c= -0.53903345)
    30a ->  49a  :     0.584263 (c= -0.76437115)


-----------------------------
TD-DFT/TDA-EXCITATION SPECTRA
-----------------------------

Center of mass = ( -3.7796, -1.0409,  0.0461)
Calculating the Dipole integrals                  ... done
Transforming integrals                            ... done
Calculating the Linear Momentum integrals         ... done
Transforming integrals                            ... done
Calculating angular momentum integrals            ... done
Transforming integrals                            ... done

-----------------------------------------------------------------------------
         ABSORPTION SPECTRUM VIA TRANSITION ELECTRIC DIPOLE MOMENTS
-----------------------------------------------------------------------------
State   Energy  Wavelength   fosc         T2         TX        TY        TZ  
        (cm-1)    (nm)                  (au**2)     (au)      (au)      (au) 
-----------------------------------------------------------------------------
   1   41460.6    241.2   0.008580207   0.06813  -0.15418  -0.20582   0.04469
   2   44642.8    224.0   0.004710291   0.03474  -0.13368  -0.04881  -0.12034
   3   45293.8    220.8   0.007287105   0.05297   0.21379  -0.00466   0.08508
   4   46499.7    215.1   0.004960281   0.03512   0.08722  -0.10622   0.12739
   5   47774.8    209.3   0.000803076   0.00553   0.05465   0.01606  -0.04785
   6   48157.5    207.7   0.004352229   0.02975   0.00508   0.16621   0.04585
   7   49061.2    203.8   0.005304155   0.03559  -0.11601   0.14458  -0.03507
   8   50330.4    198.7   0.004116276   0.02692  -0.12776  -0.10294   0.00239
   9   50816.5    196.8   0.004289150   0.02779   0.13345  -0.08368   0.05456
  10   51449.7    194.4   0.000573772   0.00367   0.01010  -0.02301   0.05513
  11   52088.3    192.0   0.010752091   0.06796  -0.21718   0.12790  -0.06656
  12   53423.1    187.2   0.046008230   0.28352   0.39046  -0.35297   0.08044
  13   53937.7    185.4   0.010363095   0.06325  -0.14750   0.20337  -0.01170
  14   54072.4    184.9   0.005543979   0.03375  -0.03860   0.17505   0.04026
  15   55044.4    181.7   0.006270227   0.03750   0.09457  -0.15383  -0.06996
  16   55500.4    180.2   0.008104125   0.04807   0.01703  -0.08359  -0.20198
  17   56466.4    177.1   0.007682308   0.04479   0.18838  -0.00900  -0.09603
  18   56647.5    176.5   0.048780380   0.28349   0.50443   0.10489  -0.13433
  19   57457.7    174.0   0.005015327   0.02874   0.08731  -0.06537  -0.12977
  20   57774.1    173.1   0.001631101   0.00929  -0.05812   0.05403  -0.05475
  21   58088.8    172.2   0.012391715   0.07023  -0.05091  -0.25442   0.05392
  22   59069.2    169.3   0.001611476   0.00898   0.01277  -0.09122  -0.02228
  23   59377.0    168.4   0.004870166   0.02700  -0.12787   0.09098   0.04872
  24   59960.6    166.8   0.073851673   0.40548  -0.59474  -0.20368   0.10138
  25   60577.3    165.1   0.012867914   0.06993  -0.19375   0.16017   0.08208
  26   60801.1    164.5   0.002970711   0.01609   0.11712   0.03328   0.03550
  27   61269.2    163.2   0.001523007   0.00818   0.04057  -0.07239  -0.03601
  28   61417.9    162.8   0.010628361   0.05697  -0.02283  -0.23754   0.00508
  29   61563.1    162.4   0.014415682   0.07709  -0.24990  -0.06523   0.10191
  30   62098.1    161.0   0.015014750   0.07960  -0.22814  -0.16565   0.01063
  31   62362.2    160.4   0.012076241   0.06375   0.22104   0.02372  -0.11970
  32   62490.3    160.0   0.004397971   0.02317  -0.08238  -0.10200   0.07732
  33   62713.8    159.5   0.025631339   0.13455  -0.02594  -0.00172   0.36589
  34   63001.9    158.7   0.012579772   0.06573  -0.20921   0.11875  -0.08869
  35   63374.1    157.8   0.021279369   0.11054   0.25169  -0.19317   0.09940
  36   63546.9    157.4   0.010883903   0.05639   0.18406   0.14162  -0.04953
  37   63683.6    157.0   0.046616679   0.24098  -0.45299  -0.18269  -0.04910
  38   64203.8    155.8   0.010600213   0.05435  -0.00026  -0.23063  -0.03413
  39   64262.9    155.6   0.004707395   0.02412   0.12721  -0.04373   0.07759
  40   64601.9    154.8   0.000858171   0.00437  -0.02142   0.01561  -0.06059
  41   65136.1    153.5   0.005540232   0.02800  -0.15657  -0.05250  -0.02703
  42   65199.5    153.4   0.022579787   0.11401   0.14398  -0.28874   0.09954
  43   65387.0    152.9   0.003509702   0.01767  -0.12090   0.00947   0.05444
  44   65526.1    152.6   0.003676842   0.01847   0.11612   0.03745   0.05989
  45   65743.6    152.1   0.019956362   0.09993   0.08071  -0.01770  -0.30513
  46   65859.1    151.8   0.000557991   0.00279   0.02895  -0.03941  -0.01995
  47   66101.4    151.3   0.011671847   0.05813   0.22817  -0.05018   0.05960
  48   66349.5    150.7   0.007823419   0.03882   0.05593   0.18186  -0.05115
  49   66565.7    150.2   0.006102480   0.03018   0.06160   0.16241  -0.00296
  50   66698.0    149.9   0.015905569   0.07851  -0.26543  -0.06392   0.06298

-----------------------------------------------------------------------------
         ABSORPTION SPECTRUM VIA TRANSITION VELOCITY DIPOLE MOMENTS
-----------------------------------------------------------------------------
State   Energy  Wavelength   fosc         P2         PX        PY        PZ  
        (cm-1)    (nm)                  (au**2)     (au)      (au)      (au) 
-----------------------------------------------------------------------------
   1   41460.6    241.2   0.006307921   0.00179   0.02994   0.01633   0.02499
   2   44642.8    224.0   0.003763824   0.00115   0.02294   0.01407  -0.02060
   3   45293.8    220.8   0.003651593   0.00113  -0.01464  -0.02859   0.00992
   4   46499.7    215.1   0.001088967   0.00035  -0.00652   0.01613   0.00659
   5   47774.8    209.3   0.001516090   0.00050  -0.01561  -0.00271  -0.01562
   6   48157.5    207.7   0.003610611   0.00119  -0.01383  -0.02889  -0.01274
   7   49061.2    203.8   0.000402589   0.00013  -0.00015   0.00131   0.01154
   8   50330.4    198.7   0.003378900   0.00116   0.02774   0.01076  -0.01665
   9   50816.5    196.8   0.000611435   0.00021  -0.01295   0.00325  -0.00583
  10   51449.7    194.4   0.001123532   0.00040   0.00564   0.00160  -0.01899
  11   52088.3    192.0   0.005780842   0.00206   0.03804  -0.01892   0.01590
  12   53423.1    187.2   0.006165959   0.00225  -0.01739  -0.01660  -0.04091
  13   53937.7    185.4   0.000532232   0.00020  -0.00209   0.00927  -0.01029
  14   54072.4    184.9   0.000762090   0.00028  -0.00775  -0.01459  -0.00297
  15   55044.4    181.7   0.002995039   0.00113   0.00412  -0.00542   0.03287
  16   55500.4    180.2   0.004271383   0.00162  -0.00059   0.01014   0.03895
  17   56466.4    177.1   0.005520410   0.00213  -0.04388   0.01406   0.00265
  18   56647.5    176.5   0.021806443   0.00844  -0.07856  -0.04147   0.02348
  19   57457.7    174.0   0.003138712   0.00123  -0.01941   0.01525   0.02497
  20   57774.1    173.1   0.000701405   0.00028   0.01506  -0.00616   0.00351
  21   58088.8    172.2   0.007081706   0.00281   0.01540   0.05068   0.00242
  22   59069.2    169.3   0.003084038   0.00125   0.00746   0.01020   0.03294
  23   59377.0    168.4   0.001842923   0.00075   0.01888   0.01437  -0.01359
  24   59960.6    166.8   0.035596886   0.01459   0.11329   0.04019  -0.01176
  25   60577.3    165.1   0.000927578   0.00038   0.00154   0.01493  -0.01259
  26   60801.1    164.5   0.001516210   0.00063  -0.02229  -0.00977  -0.00613
  27   61269.2    163.2   0.000893327   0.00037  -0.00208   0.00719  -0.01783
  28   61417.9    162.8   0.010688625   0.00449   0.00310   0.06635  -0.00865
  29   61563.1    162.4   0.005221889   0.00220   0.04319   0.01027  -0.01504
  30   62098.1    161.0   0.008720424   0.00370   0.04402   0.02889  -0.03048
  31   62362.2    160.4   0.003816899   0.00163  -0.03355  -0.01677   0.01482
  32   62490.3    160.0   0.002742892   0.00117   0.03222  -0.00400  -0.01082
  33   62713.8    159.5   0.016392679   0.00703  -0.01975   0.04258  -0.06945
  34   63001.9    158.7   0.002955154   0.00127   0.01503   0.01383   0.02924
  35   63374.1    157.8   0.006475951   0.00280   0.00479  -0.03331  -0.04090
  36   63546.9    157.4   0.005785800   0.00251  -0.03573  -0.03502   0.00311
  37   63683.6    157.0   0.025243082   0.01099   0.07846   0.06831   0.01284
  38   64203.8    155.8   0.008438434   0.00370  -0.00514   0.06060  -0.00215
  39   64262.9    155.6   0.002885193   0.00127  -0.01517  -0.01106  -0.03024
  40   64601.9    154.8   0.001904310   0.00084  -0.01108   0.01499   0.02221
  41   65136.1    153.5   0.005047933   0.00225   0.01569   0.04129   0.01721
  42   65199.5    153.4   0.002805180   0.00125  -0.00266   0.02171  -0.02777
  43   65387.0    152.9   0.001468172   0.00066   0.01671   0.01004  -0.01662
  44   65526.1    152.6   0.002347442   0.00105  -0.01534   0.00607  -0.02791
  45   65743.6    152.1   0.006176406   0.00278  -0.01506  -0.00488   0.05025
  46   65859.1    151.8   0.000556896   0.00025   0.01213  -0.00865   0.00536
  47   66101.4    151.3   0.015006911   0.00678  -0.07696   0.02661  -0.01222
  48   66349.5    150.7   0.005507650   0.00250  -0.02079  -0.04482   0.00748
  49   66565.7    150.2   0.001939984   0.00088  -0.02118  -0.02083   0.00002
  50   66698.0    149.9   0.008957052   0.00408   0.04533   0.04501  -0.00139

-------------------------------------------------------------------
                             CD SPECTRUM
-------------------------------------------------------------------
State   Energy Wavelength       R         MX        MY        MZ   
        (cm-1)   (nm)       (1e40*sgs)   (au)      (au)      (au)  
-------------------------------------------------------------------
   1   41460.6    241.2      0.02213   0.06321  -0.05143  -0.01775
   2   44642.8    224.0     17.49229  -0.19681   0.03854  -0.10532
   3   45293.8    220.8     -2.31718   0.06355  -0.01764  -0.21844
   4   46499.7    215.1      7.73016   0.17804   0.01304   0.01769
   5   47774.8    209.3     -2.33752  -0.15647   0.04645  -0.05951
   6   48157.5    207.7      6.81774  -0.01234   0.05008   0.13526
   7   49061.2    203.8      2.19656   0.09733   0.13925   0.11924
   8   50330.4    198.7      3.20914  -0.06128   0.01656   0.28534
   9   50816.5    196.8     -2.77179   0.00201   0.00477  -0.10536
  10   51449.7    194.4     -2.18046  -0.02291   0.14771  -0.01803
  11   52088.3    192.0     -3.17392   0.00660   0.02331   0.12440
  12   53423.1    187.2    -25.33057  -0.10192  -0.04137  -0.35477
  13   53937.7    185.4     -4.23960  -0.01676  -0.04738   0.15637
  14   54072.4    184.9     -0.09935   0.09092   0.03759  -0.08151
  15   55044.4    181.7     15.55673   0.11660  -0.06504  -0.17102
  16   55500.4    180.2      4.58115  -0.04260   0.00288  -0.05289
  17   56466.4    177.1    -10.45433  -0.09225   0.08091   0.04238
  18   56647.5    176.5     33.01794   0.13332  -0.00029  -0.02095
  19   57457.7    174.0     -9.76994  -0.02321  -0.02301   0.15566
  20   57774.1    173.1     -4.39569  -0.00025  -0.05724   0.11407
  21   58088.8    172.2     -4.97709   0.16604   0.02496   0.07877
  22   59069.2    169.3      2.32354   0.06097  -0.05002   0.01852
  23   59377.0    168.4      6.14397  -0.04385   0.02771   0.10065
  24   59960.6    166.8    -18.45258   0.05993  -0.03296  -0.10072
  25   60577.3    165.1     -8.45190   0.17537   0.02684   0.14315
  26   60801.1    164.5     -1.70916  -0.01441   0.07239  -0.12243
  27   61269.2    163.2      6.55737  -0.08460  -0.22257  -0.03414
  28   61417.9    162.8     -3.98961  -0.02469   0.04080   0.13076
  29   61563.1    162.4     23.22225  -0.15541  -0.08510   0.04779
  30   62098.1    161.0    -17.96870   0.05311   0.15351  -0.05335
  31   62362.2    160.4      3.36397   0.05104  -0.02241   0.03020
  32   62490.3    160.0     -3.42036   0.10639  -0.01676  -0.00259
  33   62713.8    159.5     17.61381  -0.06098   0.07173   0.09812
  34   63001.9    158.7    -24.16147   0.03515  -0.17401   0.26195
  35   63374.1    157.8    -10.68189  -0.03930  -0.01566  -0.15887
  36   63546.9    157.4      3.07341   0.00859   0.06967   0.09948
  37   63683.6    157.0    -24.68644   0.09717   0.02260   0.08585
  38   64203.8    155.8    -14.25448  -0.02030   0.13894  -0.05282
  39   64262.9    155.6     -3.13469  -0.03748   0.00982  -0.01871
  40   64601.9    154.8     -0.37208  -0.00985  -0.09196  -0.00718
  41   65136.1    153.5     -2.81651   0.05063  -0.00520  -0.06214
  42   65199.5    153.4    -24.90084   0.03264   0.14465  -0.15823
  43   65387.0    152.9     -2.23200   0.04460  -0.04374   0.01970
  44   65526.1    152.6      8.30540   0.19281   0.05372  -0.11327
  45   65743.6    152.1     -5.23959   0.04933   0.08822   0.04435
  46   65859.1    151.8      1.51021   0.02613   0.00200  -0.12661
  47   66101.4    151.3     -3.23753   0.00347  -0.03081  -0.15444
  48   66349.5    150.7     -4.35570  -0.07336  -0.04510  -0.05994
  49   66565.7    150.2     -0.69909  -0.00139  -0.01106  -0.13446
  50   66698.0    149.9      2.28072  -0.00902   0.02860   0.06784

Total run time:      298.014 sec

           *** ORCA-CIS/TD-DFT FINISHED WITHOUT ERROR ***

-----------------------
CIS/TD-DFT TOTAL ENERGY
-----------------------

    E(SCF)  =   -362.212098586 Eh
    DE(CIS) =      0.188908312 Eh (Root  1)
    ----------------------------- ---------
    E(tot)  =   -362.023190274 Eh


-------------------------   --------------------
FINAL SINGLE POINT ENERGY      -362.023190274055
-------------------------   --------------------


                            ***************************************
                            *     ORCA property calculations      *
                            ***************************************

                                    ---------------------
                                    Active property flags
                                    ---------------------
   (+) Dipole Moment


------------------------------------------------------------------------------
                       ORCA ELECTRIC PROPERTIES CALCULATION
------------------------------------------------------------------------------

Dipole Moment Calculation                       ... on
Quadrupole Moment Calculation                   ... off
Polarizability Calculation                      ... off
GBWName                                         ... 14624.gbw
Electron density file                           ... 14624.scfp.tmp

-------------
DIPOLE MOMENT
-------------
                                X             Y             Z
Electronic contribution:     -0.60165      -2.55709       0.31197
Nuclear contribution   :      0.17138       1.90271      -0.27614
                        -----------------------------------------
Total Dipole Moment    :     -0.43027      -0.65438       0.03582
                        -----------------------------------------
Magnitude (a.u.)       :      0.78398
Magnitude (Debye)      :      1.99272

--------------------------------------------------------------------------
WARNING: Open MPI failed to open the /dev/knem device due to a local
error. Please check with your system administrator to get the problem
fixed, or set the btl_vader_single_copy_mechanism MCA variable to none
to silence this warning and run without knem support.

The vader shared memory BTL will fall back on another single-copy
mechanism if one is available. This may result in lower performance.

  Local host: ganbo135
  Errno:      2 (No such file or directory)
--------------------------------------------------------------------------
--------------------------------------------------------------------------
WARNING: Linux kernel knem support was requested via the
btl_vader_single_copy_mechanism MCA parameter, but Knem support was either not
compiled into this Open MPI installation, or Knem support was unable
to be activated in this process.

The vader BTL will fall back on another single-copy mechanism if one
is available. This may result in lower performance.

  Local host: ganbo135
--------------------------------------------------------------------------

Timings for individual modules:

Sum of individual times         ...      326.167 sec (=   5.436 min)
GTO integral calculation        ...        1.608 sec (=   0.027 min)   0.5 %
SCF iterations                  ...       25.254 sec (=   0.421 min)   7.7 %
CIS module                      ...      299.305 sec (=   4.988 min)  91.8 %
                             ****ORCA TERMINATED NORMALLY****
TOTAL RUN TIME: 0 days 0 hours 5 minutes 28 seconds 80 msec
