<?xml version="1.0" encoding="ISO-8859-1"?>
<modeling>
 <generator>
  <i name="program" type="string">vasp </i>
  <i name="version" type="string">5.3.5  </i>
  <i name="subversion" type="string">31Mar14 (build Mar 10 2016 15:14:55) complex                          parallel </i>
  <i name="platform" type="string">ifort.openmpi.avx </i>
  <i name="date" type="string">2016 05 09 </i>
  <i name="time" type="string">16:33:23 </i>
 </generator>
 <incar>
  <i type="string" name="PREC">accurate</i>
  <i type="string" name="ALGO"> Fast</i>
  <i type="logical" name="ADDGRID"> T  </i>
  <i type="int" name="ISPIN">     2</i>
  <i type="int" name="ICHARG">     1</i>
  <i type="int" name="NELM">   100</i>
  <i type="int" name="IBRION">     2</i>
  <i name="EDIFF">      0.00001000</i>
  <i name="EDIFFG">     -0.01000000</i>
  <i type="int" name="NSW">    99</i>
  <i type="int" name="ISIF">     3</i>
  <i name="ENCUT">    520.00000000</i>
  <i name="POTIM">      0.50000000</i>
  <v name="MAGMOM">      0.60000000      0.60000000      5.00000000      0.60000000      0.60000000</v>
  <i type="string" name="LREAL"> Auto</i>
  <i type="int" name="ISMEAR">    -5</i>
  <i name="SIGMA">      0.05000000</i>
  <i type="int" name="LMAXMIX">     4</i>
  <i type="logical" name="LWAVE"> F  </i>
  <i type="logical" name="LORBIT"> F  </i>
  <i type="logical" name="LASPH"> T  </i>
  <i type="int" name="NELM">   100</i>
  <i type="logical" name="LDAU"> T  </i>
  <v type="int" name="LDAUTYPE">     2</v>
  <v type="int" name="LDAUL">     0     2     0</v>
  <v name="LDAUU">      0.00000000      6.20000000      0.00000000</v>
  <v name="LDAUJ">      0.00000000      0.00000000      0.00000000</v>
  <i type="int" name="LDAUPRINT">     1</i>
  <i type="logical" name="LASPH"> T  </i>
 </incar>
 <kpoints>
  <generation param="Gamma">
   <v type="int" name="divisions">       8        8        4 </v>
   <v name="usershift">      0.00000000       0.00000000       0.00000000 </v>
   <v name="genvec1">      0.12500000       0.00000000       0.00000000 </v>
   <v name="genvec2">      0.00000000       0.12500000       0.00000000 </v>
   <v name="genvec3">      0.00000000       0.00000000       0.25000000 </v>
   <v name="shift">      0.00000000       0.00000000       0.00000000 </v>
  </generation>
  <varray name="kpointlist" >
   <v>       0.00000000       0.00000000       0.00000000 </v>
   <v>       0.12500000       0.00000000       0.00000000 </v>
   <v>       0.25000000       0.00000000       0.00000000 </v>
   <v>       0.37500000       0.00000000       0.00000000 </v>
   <v>       0.50000000       0.00000000       0.00000000 </v>
   <v>       0.12500000       0.12500000       0.00000000 </v>
   <v>       0.25000000       0.12500000       0.00000000 </v>
   <v>       0.37500000       0.12500000       0.00000000 </v>
   <v>       0.25000000       0.25000000       0.00000000 </v>
   <v>       0.37500000       0.25000000       0.00000000 </v>
   <v>       0.00000000       0.00000000       0.25000000 </v>
   <v>       0.12500000       0.00000000       0.25000000 </v>
   <v>       0.25000000       0.00000000       0.25000000 </v>
   <v>       0.37500000       0.00000000       0.25000000 </v>
   <v>       0.50000000       0.00000000       0.25000000 </v>
   <v>      -0.37500000       0.00000000       0.25000000 </v>
   <v>      -0.25000000      -0.00000000       0.25000000 </v>
   <v>      -0.12500000      -0.00000000       0.25000000 </v>
   <v>       0.12500000       0.12500000       0.25000000 </v>
   <v>       0.25000000       0.12500000       0.25000000 </v>
   <v>       0.37500000       0.12500000       0.25000000 </v>
   <v>       0.50000000       0.12500000       0.25000000 </v>
   <v>      -0.37500000       0.12500000       0.25000000 </v>
   <v>       0.25000000       0.25000000       0.25000000 </v>
   <v>       0.37500000       0.25000000       0.25000000 </v>
   <v>       0.00000000       0.00000000       0.50000000 </v>
   <v>       0.12500000       0.00000000       0.50000000 </v>
   <v>       0.25000000       0.00000000       0.50000000 </v>
   <v>       0.37500000       0.00000000       0.50000000 </v>
   <v>       0.50000000       0.00000000       0.50000000 </v>
   <v>       0.12500000       0.12500000       0.50000000 </v>
   <v>       0.25000000       0.12500000       0.50000000 </v>
   <v>       0.37500000       0.12500000       0.50000000 </v>
   <v>       0.25000000       0.25000000       0.50000000 </v>
   <v>       0.37500000       0.25000000       0.50000000 </v>
  </varray>
  <varray name="weights" >
   <v>       0.00390625 </v>
   <v>       0.02343750 </v>
   <v>       0.02343750 </v>
   <v>       0.02343750 </v>
   <v>       0.01171875 </v>
   <v>       0.02343750 </v>
   <v>       0.04687500 </v>
   <v>       0.04687500 </v>
   <v>       0.02343750 </v>
   <v>       0.02343750 </v>
   <v>       0.00781250 </v>
   <v>       0.02343750 </v>
   <v>       0.02343750 </v>
   <v>       0.02343750 </v>
   <v>       0.02343750 </v>
   <v>       0.02343750 </v>
   <v>       0.02343750 </v>
   <v>       0.02343750 </v>
   <v>       0.04687500 </v>
   <v>       0.04687500 </v>
   <v>       0.04687500 </v>
   <v>       0.04687500 </v>
   <v>       0.04687500 </v>
   <v>       0.04687500 </v>
   <v>       0.04687500 </v>
   <v>       0.00390625 </v>
   <v>       0.02343750 </v>
   <v>       0.02343750 </v>
   <v>       0.02343750 </v>
   <v>       0.01171875 </v>
   <v>       0.02343750 </v>
   <v>       0.04687500 </v>
   <v>       0.04687500 </v>
   <v>       0.02343750 </v>
   <v>       0.02343750 </v>
  </varray>
  <varray name="tetrahedronlist"  type="int" >
   <v type="int" >        4        2        2        6       18 </v>
   <v type="int" >        4        1        2        2       18 </v>
   <v type="int" >        4        1        2       11       18 </v>
   <v type="int" >        4        2        6       18       19 </v>
   <v type="int" >        8        2       12       18       19 </v>
   <v type="int" >        8        2       11       12       18 </v>
   <v type="int" >        8        3        6        7       19 </v>
   <v type="int" >        8        2        3        6       19 </v>
   <v type="int" >        4        2        3       12       19 </v>
   <v type="int" >        4        3        7       19       20 </v>
   <v type="int" >        4        3       13       19       20 </v>
   <v type="int" >        4        3       12       13       19 </v>
   <v type="int" >        4        4        7        8       20 </v>
   <v type="int" >        4        3        4        7       20 </v>
   <v type="int" >        4        3        4       13       20 </v>
   <v type="int" >        4        4        8       20       21 </v>
   <v type="int" >        4        4       14       20       21 </v>
   <v type="int" >        4        4       13       14       20 </v>
   <v type="int" >        4        5        8        8       21 </v>
   <v type="int" >        4        4        5        8       21 </v>
   <v type="int" >        4        4        5       14       21 </v>
   <v type="int" >        4        5        8       21       22 </v>
   <v type="int" >        4        5       15       21       22 </v>
   <v type="int" >        4        5       14       15       21 </v>
   <v type="int" >        4        4        7        8       22 </v>
   <v type="int" >        4        4        5        8       22 </v>
   <v type="int" >        4        4        5       15       22 </v>
   <v type="int" >        4        4        7       22       23 </v>
   <v type="int" >        4        4       16       22       23 </v>
   <v type="int" >        4        4       15       16       22 </v>
   <v type="int" >        4        3        6        7       23 </v>
   <v type="int" >        4        3        4        7       23 </v>
   <v type="int" >        4        3        4       16       23 </v>
   <v type="int" >        4        3        6       19       23 </v>
   <v type="int" >        4        3       17       19       23 </v>
   <v type="int" >        4        3       16       17       23 </v>
   <v type="int" >        4        2        2        6       19 </v>
   <v type="int" >        4        2        3       17       19 </v>
   <v type="int" >        4        2        2       12       19 </v>
   <v type="int" >        4        2       17       18       19 </v>
   <v type="int" >        4        1        2        2       12 </v>
   <v type="int" >        4        1        2       12       18 </v>
   <v type="int" >        4        1       11       12       18 </v>
   <v type="int" >        4        3        6        7       17 </v>
   <v type="int" >        4        2        3        6       17 </v>
   <v type="int" >        4        2        6       17       18 </v>
   <v type="int" >        4        6        7       17       23 </v>
   <v type="int" >        4        6       17       19       23 </v>
   <v type="int" >        4        6       17       18       19 </v>
   <v type="int" >        4        7        7        9       23 </v>
   <v type="int" >        4        6        7        7       23 </v>
   <v type="int" >        4        6        7       19       23 </v>
   <v type="int" >        4        7        9       23       24 </v>
   <v type="int" >        8        7       20       23       24 </v>
   <v type="int" >        8        7       19       20       23 </v>
   <v type="int" >        8        8        9       10       24 </v>
   <v type="int" >        8        7        8        9       24 </v>
   <v type="int" >        4        7        8       20       24 </v>
   <v type="int" >        4        8       10       24       25 </v>
   <v type="int" >        4        8       21       24       25 </v>
   <v type="int" >        4        8       20       21       24 </v>
   <v type="int" >        8        8        9       10       25 </v>
   <v type="int" >        4        8        8       10       25 </v>
   <v type="int" >        4        8        8       21       25 </v>
   <v type="int" >        4        8        9       24       25 </v>
   <v type="int" >        4        8       22       24       25 </v>
   <v type="int" >        8        8       21       22       25 </v>
   <v type="int" >        4        7        7        9       24 </v>
   <v type="int" >        4        7        8       22       24 </v>
   <v type="int" >        4        7        7       20       24 </v>
   <v type="int" >        4        7       22       23       24 </v>
   <v type="int" >        4        3        6        7       20 </v>
   <v type="int" >        4        6        7        7       20 </v>
   <v type="int" >        4        6        7       20       23 </v>
   <v type="int" >        4        3        6       13       20 </v>
   <v type="int" >        4        6       13       19       20 </v>
   <v type="int" >        4        6       19       20       23 </v>
   <v type="int" >        4        2        3        6       13 </v>
   <v type="int" >        4        2        6       13       19 </v>
   <v type="int" >        4        2       12       13       19 </v>
   <v type="int" >        4        4        7        8       16 </v>
   <v type="int" >        4        3        4        7       16 </v>
   <v type="int" >        4        3        7       16       17 </v>
   <v type="int" >        4        7        8       16       22 </v>
   <v type="int" >        4        7       16       22       23 </v>
   <v type="int" >        4        7       16       17       23 </v>
   <v type="int" >        4        8        9       10       22 </v>
   <v type="int" >        4        7        8        9       22 </v>
   <v type="int" >        4        7        9       22       23 </v>
   <v type="int" >        4        9       10       22       25 </v>
   <v type="int" >        4        9       22       24       25 </v>
   <v type="int" >        4        9       22       23       24 </v>
   <v type="int" >        4       10       10       10       25 </v>
   <v type="int" >        8        9       10       10       25 </v>
   <v type="int" >        4        9       10       24       25 </v>
   <v type="int" >        4       10       10       25       25 </v>
   <v type="int" >        4       10       25       25       25 </v>
   <v type="int" >        8       10       24       25       25 </v>
   <v type="int" >        4        9       10       25       25 </v>
   <v type="int" >        4        8        9       21       25 </v>
   <v type="int" >        4        9       21       24       25 </v>
   <v type="int" >        4        9       24       25       25 </v>
   <v type="int" >        4        4        7        8       21 </v>
   <v type="int" >        4        7        8        9       21 </v>
   <v type="int" >        4        7        9       21       24 </v>
   <v type="int" >        4        4        7       14       21 </v>
   <v type="int" >        4        7       14       20       21 </v>
   <v type="int" >        4        7       20       21       24 </v>
   <v type="int" >        4        3        4        7       14 </v>
   <v type="int" >        4        3        7       14       20 </v>
   <v type="int" >        4        3       13       14       20 </v>
   <v type="int" >        4        5        8        8       15 </v>
   <v type="int" >        8        4        5        8       15 </v>
   <v type="int" >        4        4        8       15       16 </v>
   <v type="int" >        4        8        8       15       21 </v>
   <v type="int" >        8        8       15       21       22 </v>
   <v type="int" >        4        8       15       16       22 </v>
   <v type="int" >        4        8        9       10       21 </v>
   <v type="int" >        4        8        8       10       21 </v>
   <v type="int" >        4        8       10       21       22 </v>
   <v type="int" >        4        9       10       21       24 </v>
   <v type="int" >        4       10       21       24       25 </v>
   <v type="int" >        4       10       21       22       25 </v>
   <v type="int" >        4        9       10       10       24 </v>
   <v type="int" >        4       10       10       24       25 </v>
   <v type="int" >        4        8       10       22       24 </v>
   <v type="int" >        4       10       22       24       25 </v>
   <v type="int" >        4        5        8        8       22 </v>
   <v type="int" >        4        8        8       10       22 </v>
   <v type="int" >        4        8       10       22       25 </v>
   <v type="int" >        4        5        8       15       22 </v>
   <v type="int" >        4        4        8       15       21 </v>
   <v type="int" >        4        4       14       15       21 </v>
   <v type="int" >        4        4        7        8       14 </v>
   <v type="int" >        4        4        5        8       14 </v>
   <v type="int" >        4        5        8       14       15 </v>
   <v type="int" >        4        7        8       14       20 </v>
   <v type="int" >        4        8       14       20       21 </v>
   <v type="int" >        4        8       14       15       21 </v>
   <v type="int" >        4        7        7        9       20 </v>
   <v type="int" >        4        7        8        9       20 </v>
   <v type="int" >        4        8        9       20       21 </v>
   <v type="int" >        4        7        9       20       23 </v>
   <v type="int" >        4        9       20       23       24 </v>
   <v type="int" >        4        9       20       21       24 </v>
   <v type="int" >        4        4        7        8       23 </v>
   <v type="int" >        4        7        8        9       23 </v>
   <v type="int" >        4        8        9       23       24 </v>
   <v type="int" >        4        4        8       16       23 </v>
   <v type="int" >        4        8       16       22       23 </v>
   <v type="int" >        4        8       22       23       24 </v>
   <v type="int" >        4        4        5        8       16 </v>
   <v type="int" >        4        5        8       16       22 </v>
   <v type="int" >        4        5       15       16       22 </v>
   <v type="int" >        4        3        6        7       13 </v>
   <v type="int" >        4        3        4        7       13 </v>
   <v type="int" >        4        4        7       13       14 </v>
   <v type="int" >        4        6        7       13       19 </v>
   <v type="int" >        4        7       13       19       20 </v>
   <v type="int" >        4        7       13       14       20 </v>
   <v type="int" >        4        6        7        7       19 </v>
   <v type="int" >        4        7        7       19       20 </v>
   <v type="int" >        4        3        7       17       19 </v>
   <v type="int" >        4        7       17       19       23 </v>
   <v type="int" >        4        3        4        7       17 </v>
   <v type="int" >        4        4        7       17       23 </v>
   <v type="int" >        4        4       16       17       23 </v>
   <v type="int" >        4        2        2        6       12 </v>
   <v type="int" >        4        2        3        6       12 </v>
   <v type="int" >        4        3        6       12       13 </v>
   <v type="int" >        4        2        6       12       18 </v>
   <v type="int" >        4        6       12       18       19 </v>
   <v type="int" >        4        6       12       13       19 </v>
   <v type="int" >        4        2        3        6       18 </v>
   <v type="int" >        4        3        6       18       19 </v>
   <v type="int" >        4        3       17       18       19 </v>
   <v type="int" >        4        1        2        2       11 </v>
   <v type="int" >        4        2        2       11       12 </v>
   <v type="int" >        8       12       18       19       27 </v>
   <v type="int" >        8       11       12       18       27 </v>
   <v type="int" >        4       11       12       26       27 </v>
   <v type="int" >        4       12       19       27       31 </v>
   <v type="int" >        4       12       27       27       31 </v>
   <v type="int" >        4       12       26       27       27 </v>
   <v type="int" >        4       13       19       20       31 </v>
   <v type="int" >        4       12       13       19       31 </v>
   <v type="int" >        4       12       13       27       31 </v>
   <v type="int" >        4       13       20       31       32 </v>
   <v type="int" >        4       13       28       31       32 </v>
   <v type="int" >        4       13       27       28       31 </v>
   <v type="int" >        4       14       20       21       32 </v>
   <v type="int" >        4       13       14       20       32 </v>
   <v type="int" >        4       13       14       28       32 </v>
   <v type="int" >        4       14       21       32       33 </v>
   <v type="int" >        4       14       29       32       33 </v>
   <v type="int" >        4       14       28       29       32 </v>
   <v type="int" >        8       15       21       22       33 </v>
   <v type="int" >        4       14       15       21       33 </v>
   <v type="int" >        4       14       15       29       33 </v>
   <v type="int" >        4       15       22       33       33 </v>
   <v type="int" >        4       15       30       33       33 </v>
   <v type="int" >        8       15       29       30       33 </v>
   <v type="int" >        4       16       22       23       33 </v>
   <v type="int" >        4       15       16       22       33 </v>
   <v type="int" >        4       15       16       30       33 </v>
   <v type="int" >        4       16       23       32       33 </v>
   <v type="int" >        4       16       29       32       33 </v>
   <v type="int" >        4       16       29       30       33 </v>
   <v type="int" >        4       17       19       23       32 </v>
   <v type="int" >        4       16       17       23       32 </v>
   <v type="int" >        4       16       17       29       32 </v>
   <v type="int" >        4       17       19       31       32 </v>
   <v type="int" >        4       17       28       31       32 </v>
   <v type="int" >        4       17       28       29       32 </v>
   <v type="int" >        4       12       18       19       31 </v>
   <v type="int" >        4       17       18       19       31 </v>
   <v type="int" >        4       17       18       28       31 </v>
   <v type="int" >        4       12       18       27       31 </v>
   <v type="int" >        4       18       27       27       31 </v>
   <v type="int" >        4       18       27       28       31 </v>
   <v type="int" >        4       11       18       27       27 </v>
   <v type="int" >        4       11       26       27       27 </v>
   <v type="int" >        4       17       19       23       28 </v>
   <v type="int" >        4       17       18       19       28 </v>
   <v type="int" >        4       18       19       27       28 </v>
   <v type="int" >        4       19       23       28       32 </v>
   <v type="int" >        8       19       28       31       32 </v>
   <v type="int" >        8       19       27       28       31 </v>
   <v type="int" >        8       20       23       24       32 </v>
   <v type="int" >        8       19       20       23       32 </v>
   <v type="int" >        4       19       20       31       32 </v>
   <v type="int" >        4       20       24       32       34 </v>
   <v type="int" >        4       20       32       32       34 </v>
   <v type="int" >        4       20       31       32       32 </v>
   <v type="int" >        4       21       24       25       34 </v>
   <v type="int" >        4       20       21       24       34 </v>
   <v type="int" >        4       20       21       32       34 </v>
   <v type="int" >        4       21       25       34       35 </v>
   <v type="int" >        4       21       33       34       35 </v>
   <v type="int" >        4       21       32       33       34 </v>
   <v type="int" >        4       22       24       25       35 </v>
   <v type="int" >        4       21       22       25       35 </v>
   <v type="int" >        4       21       22       33       35 </v>
   <v type="int" >        4       22       24       34       35 </v>
   <v type="int" >        4       22       33       34       35 </v>
   <v type="int" >        4       22       33       33       35 </v>
   <v type="int" >        4       20       23       24       34 </v>
   <v type="int" >        4       22       23       24       34 </v>
   <v type="int" >        4       22       23       33       34 </v>
   <v type="int" >        4       20       23       32       34 </v>
   <v type="int" >        4       23       32       32       34 </v>
   <v type="int" >        4       23       32       33       34 </v>
   <v type="int" >        4       13       19       20       32 </v>
   <v type="int" >        4       19       23       32       32 </v>
   <v type="int" >        4       13       19       28       32 </v>
   <v type="int" >        4       19       31       32       32 </v>
   <v type="int" >        4       12       13       19       28 </v>
   <v type="int" >        4       12       19       28       31 </v>
   <v type="int" >        4       12       27       28       31 </v>
   <v type="int" >        4       16       22       23       29 </v>
   <v type="int" >        4       16       17       23       29 </v>
   <v type="int" >        4       17       23       28       29 </v>
   <v type="int" >        4       22       23       29       33 </v>
   <v type="int" >        4       23       29       32       33 </v>
   <v type="int" >        4       23       28       29       32 </v>
   <v type="int" >        4       22       24       25       33 </v>
   <v type="int" >        4       22       23       24       33 </v>
   <v type="int" >        4       23       24       32       33 </v>
   <v type="int" >        4       24       25       33       35 </v>
   <v type="int" >        8       24       33       34       35 </v>
   <v type="int" >        8       24       32       33       34 </v>
   <v type="int" >        4       25       25       25       35 </v>
   <v type="int" >        8       24       25       25       35 </v>
   <v type="int" >        4       24       25       34       35 </v>
   <v type="int" >        4       25       25       35       35 </v>
   <v type="int" >        4       25       35       35       35 </v>
   <v type="int" >        8       25       34       35       35 </v>
   <v type="int" >        4       21       24       25       35 </v>
   <v type="int" >        4       24       25       35       35 </v>
   <v type="int" >        4       21       24       33       35 </v>
   <v type="int" >        4       24       34       35       35 </v>
   <v type="int" >        4       14       20       21       33 </v>
   <v type="int" >        4       20       21       24       33 </v>
   <v type="int" >        4       20       24       33       34 </v>
   <v type="int" >        4       14       20       29       33 </v>
   <v type="int" >        4       20       29       32       33 </v>
   <v type="int" >        4       20       32       33       34 </v>
   <v type="int" >        4       13       14       20       29 </v>
   <v type="int" >        4       13       20       29       32 </v>
   <v type="int" >        4       13       28       29       32 </v>
   <v type="int" >        4       15       21       22       30 </v>
   <v type="int" >        4       15       16       22       30 </v>
   <v type="int" >        4       16       22       29       30 </v>
   <v type="int" >        4       21       22       30       33 </v>
   <v type="int" >        4       22       30       33       33 </v>
   <v type="int" >        4       22       29       30       33 </v>
   <v type="int" >        4       21       24       25       33 </v>
   <v type="int" >        8       21       22       25       33 </v>
   <v type="int" >        4       22       25       33       33 </v>
   <v type="int" >        4       24       25       33       34 </v>
   <v type="int" >        8       25       33       34       35 </v>
   <v type="int" >        4       25       33       33       35 </v>
   <v type="int" >        4       22       24       25       34 </v>
   <v type="int" >        4       24       25       25       34 </v>
   <v type="int" >        4       25       25       34       35 </v>
   <v type="int" >        4       22       25       33       34 </v>
   <v type="int" >        4       21       25       33       35 </v>
   <v type="int" >        4       15       21       30       33 </v>
   <v type="int" >        4       21       30       33       33 </v>
   <v type="int" >        4       21       33       33       35 </v>
   <v type="int" >        4       14       15       21       30 </v>
   <v type="int" >        4       14       21       30       33 </v>
   <v type="int" >        4       14       29       30       33 </v>
   <v type="int" >        4       14       20       21       29 </v>
   <v type="int" >        4       14       15       21       29 </v>
   <v type="int" >        4       15       21       29       30 </v>
   <v type="int" >        4       20       21       29       32 </v>
   <v type="int" >        4       21       29       32       33 </v>
   <v type="int" >        4       21       29       30       33 </v>
   <v type="int" >        4       20       21       24       32 </v>
   <v type="int" >        4       21       24       32       33 </v>
   <v type="int" >        4       23       24       32       32 </v>
   <v type="int" >        4       24       32       32       34 </v>
   <v type="int" >        4       16       22       23       32 </v>
   <v type="int" >        4       22       23       24       32 </v>
   <v type="int" >        4       22       24       32       34 </v>
   <v type="int" >        4       16       22       29       32 </v>
   <v type="int" >        4       22       29       32       33 </v>
   <v type="int" >        4       22       32       33       34 </v>
   <v type="int" >        4       15       16       22       29 </v>
   <v type="int" >        4       15       22       29       33 </v>
   <v type="int" >        4       13       19       20       28 </v>
   <v type="int" >        4       13       14       20       28 </v>
   <v type="int" >        4       14       20       28       29 </v>
   <v type="int" >        4       19       20       28       31 </v>
   <v type="int" >        4       20       28       31       32 </v>
   <v type="int" >        4       20       28       29       32 </v>
   <v type="int" >        4       17       19       23       31 </v>
   <v type="int" >        4       19       20       23       31 </v>
   <v type="int" >        4       20       23       31       32 </v>
   <v type="int" >        4       17       23       28       31 </v>
   <v type="int" >        4       23       28       31       32 </v>
   <v type="int" >        4       23       31       32       32 </v>
   <v type="int" >        4       16       17       23       28 </v>
   <v type="int" >        4       16       23       28       32 </v>
   <v type="int" >        4       16       28       29       32 </v>
   <v type="int" >        4       12       13       19       27 </v>
   <v type="int" >        4       13       19       27       28 </v>
   <v type="int" >        4       18       19       27       27 </v>
   <v type="int" >        4       19       27       27       31 </v>
   <v type="int" >        4       17       18       19       27 </v>
   <v type="int" >        4       17       19       27       31 </v>
   <v type="int" >        4       17       27       28       31 </v>
   <v type="int" >        4       11       12       18       26 </v>
   <v type="int" >        4       12       18       26       27 </v>
   <v type="int" >        4       18       26       27       27 </v>
  </varray>
  <i name="volumeweight">      0.00065104 </i>
 </kpoints>
 <parameters>
  <separator name="general" >
   <i type="string" name="SYSTEM">unknown system</i>
   <i type="logical" name="LCOMPAT"> F  </i>
  </separator>
  <separator name="electronic" >
   <i type="string" name="PREC">accura</i>
   <i name="ENMAX">    520.00000000</i>
   <i name="ENAUG">    703.44300000</i>
   <i name="EDIFF">      0.00001000</i>
   <i type="int" name="IALGO">    68</i>
   <i type="int" name="IWAVPR">    11</i>
   <i type="int" name="NBANDS">    25</i>
   <i name="NELECT">     34.00000000</i>
   <i type="int" name="TURBO">     0</i>
   <i type="int" name="IRESTART">     0</i>
   <i type="int" name="NREBOOT">     0</i>
   <i type="int" name="NMIN">     0</i>
   <i name="EREF">      0.00000000</i>
   <separator name="electronic smearing" >
    <i type="int" name="ISMEAR">    -5</i>
    <i name="SIGMA">      0.05000000</i>
    <i name="KSPACING">      0.50000000</i>
    <i type="logical" name="KGAMMA"> T  </i>
   </separator>
   <separator name="electronic projectors" >
    <i type="logical" name="LREAL"> T  </i>
    <v name="ROPT">     -0.00025000     -0.00025000     -0.00025000</v>
    <i type="int" name="LMAXPAW">  -100</i>
    <i type="int" name="LMAXMIX">     4</i>
    <i type="logical" name="NLSPLINE"> F  </i>
   </separator>
   <separator name="electronic startup" >
    <i type="int" name="ISTART">     0</i>
    <i type="int" name="ICHARG">     1</i>
    <i type="int" name="INIWAV">     1</i>
   </separator>
   <separator name="electronic spin" >
    <i type="int" name="ISPIN">     2</i>
    <i type="logical" name="LNONCOLLINEAR"> F  </i>
    <v name="MAGMOM">      0.60000000      0.60000000      5.00000000      0.60000000      0.60000000</v>
    <i name="NUPDOWN">     -1.00000000</i>
    <i type="logical" name="LSORBIT"> F  </i>
    <v name="SAXIS">      0.00000000      0.00000000      1.00000000</v>
    <i type="logical" name="LSPIRAL"> F  </i>
    <v name="QSPIRAL">      0.00000000      0.00000000      0.00000000</v>
    <i type="logical" name="LZEROZ"> F  </i>
   </separator>
   <separator name="electronic exchange-correlation" >
    <i type="logical" name="LASPH"> T  </i>
    <i type="logical" name="LMETAGGA"> F  </i>
   </separator>
   <separator name="electronic convergence" >
    <i type="int" name="NELM">   100</i>
    <i type="int" name="NELMDL">    -5</i>
    <i type="int" name="NELMIN">     2</i>
    <i name="ENINI">    520.00000000</i>
    <separator name="electronic convergence detail" >
     <i type="logical" name="LDIAG"> T  </i>
     <i type="logical" name="LSUBROT"> F  </i>
     <i name="WEIMIN">      0.00100000</i>
     <i name="EBREAK">      0.00000010</i>
     <i name="DEPER">      0.30000000</i>
     <i type="int" name="NRMM">     4</i>
     <i name="TIME">      0.40000000</i>
    </separator>
   </separator>
   <separator name="electronic mixer" >
    <i name="AMIX">      0.40000000</i>
    <i name="BMIX">      1.00000000</i>
    <i name="AMIN">      0.10000000</i>
    <i name="AMIX_MAG">      1.60000000</i>
    <i name="BMIX_MAG">      1.00000000</i>
    <separator name="electronic mixer details" >
     <i type="int" name="IMIX">     4</i>
     <i type="int" name="MAXMIX">   -45</i>
     <i name="WC">    100.00000000</i>
     <i type="int" name="INIMIX">     1</i>
     <i type="int" name="MIXPRE">     1</i>
     <i type="int" name="MREMOVE">     5</i>
    </separator>
   </separator>
   <separator name="electronic dipolcorrection" >
    <i type="logical" name="LDIPOL"> F  </i>
    <i type="logical" name="LMONO"> F  </i>
    <i type="int" name="IDIPOL">     0</i>
    <i name="EPSILON">      1.00000000</i>
    <v name="DIPOL">   -100.00000000   -100.00000000   -100.00000000</v>
    <i name="EFIELD">      0.00000000</i>
   </separator>
  </separator>
  <separator name="grids" >
   <i type="int" name="NGX">    24</i>
   <i type="int" name="NGY">    24</i>
   <i type="int" name="NGZ">    40</i>
   <i type="int" name="NGXF">    48</i>
   <i type="int" name="NGYF">    48</i>
   <i type="int" name="NGZF">    80</i>
   <i type="logical" name="ADDGRID"> T  </i>
  </separator>
  <separator name="ionic" >
   <i type="int" name="NSW">    99</i>
   <i type="int" name="IBRION">     2</i>
   <i type="int" name="ISIF">     3</i>
   <i name="PSTRESS">      0.00000000</i>
   <i name="EDIFFG">     -0.01000000</i>
   <i type="int" name="NFREE">     1</i>
   <i name="POTIM">      0.50000000</i>
   <i name="SMASS">     -3.00000000</i>
   <i name="SCALEE">      1.00000000</i>
  </separator>
  <separator name="ionic md" >
   <i name="TEBEG">      0.00010000</i>
   <i name="TEEND">      0.00010000</i>
   <i type="int" name="NBLOCK">     1</i>
   <i type="int" name="KBLOCK">    99</i>
   <i type="int" name="NPACO">   256</i>
   <i name="APACO">     16.00000000</i>
  </separator>
  <separator name="symmetry" >
   <i type="int" name="ISYM">     2</i>
   <i name="SYMPREC">      0.00001000</i>
  </separator>
  <separator name="dos" >
   <i type="logical" name="LORBIT"> F  </i>
   <v name="RWIGS">     -1.00000000     -1.00000000     -1.00000000</v>
   <i type="int" name="NEDOS">   301</i>
   <i name="EMIN">     10.00000000</i>
   <i name="EMAX">    -10.00000000</i>
   <i name="EFERMI">      0.00000000</i>
  </separator>
  <separator name="writing" >
   <i type="int" name="NWRITE">     2</i>
   <i type="logical" name="LWAVE"> F  </i>
   <i type="logical" name="LCHARG"> T  </i>
   <i type="logical" name="LPARD"> F  </i>
   <i type="logical" name="LVTOT"> F  </i>
   <i type="logical" name="LVHAR"> F  </i>
   <i type="logical" name="LELF"> F  </i>
   <i type="logical" name="LOPTICS"> F  </i>
   <v name="STM">      0.00000000      0.00000000      0.00000000      0.00000000      0.00000000      0.00000000      0.00000000</v>
  </separator>
  <separator name="performance" >
   <i type="int" name="NPAR">     1</i>
   <i type="int" name="NSIM">     4</i>
   <i type="int" name="NBLK">    -1</i>
   <i type="logical" name="LPLANE"> T  </i>
   <i type="logical" name="LSCALAPACK"> T  </i>
   <i type="logical" name="LSCAAWARE"> F  </i>
   <i type="logical" name="LSCALU"> F  </i>
   <i type="logical" name="LASYNC"> F  </i>
   <i type="logical" name="LORBITALREAL"> F  </i>
  </separator>
  <separator name="miscellaneous" >
   <i type="int" name="IDIOT">     3</i>
   <i type="logical" name="LMUSIC"> F  </i>
   <v name="POMASS">      7.01000000     58.69000000     16.00000000</v>
   <v name="DARWINR">      0.00000000      0.00000000      0.00000000</v>
   <v name="DARWINV">      1.00000000      1.00000000      1.00000000</v>
   <i type="logical" name="LCORR"> T  </i>
  </separator>
  <i type="logical" name="GGA_COMPAT"> T  </i>
  <i type="logical" name="LBERRY"> F  </i>
  <i type="int" name="ICORELEVEL">     0</i>
  <i type="logical" name="LDAU"> T  </i>
  <v type="int" name="LDAUTYPE">     2</v>
  <v type="int" name="LDAUL">     0</v>
  <v name="LDAUU">      0.00000000</v>
  <v name="LDAUJ">      0.00000000</v>
  <i type="int" name="LDAUPRINT">     1</i>
  <i type="int" name="I_CONSTRAINED_M">     0</i>
  <separator name="electronic exchange-correlation" >
   <i type="string" name="GGA">--</i>
   <i type="int" name="VOSKOWN">     0</i>
   <i type="logical" name="LHFCALC"> F  </i>
   <i type="string" name="PRECFOCK"></i>
   <i type="logical" name="LSYMGRAD"> F  </i>
   <i type="logical" name="LHFONE"> F  </i>
   <i type="logical" name="LRHFCALC"> F  </i>
   <i type="logical" name="LTHOMAS"> F  </i>
   <i type="logical" name="LMODELHF"> F  </i>
   <i name="ENCUT4O">     -1.00000000</i>
   <i type="int" name="EXXOEP">     0</i>
   <i type="int" name="FOURORBIT">     0</i>
   <i name="AEXX">      0.00000000</i>
   <i name="HFALPHA">      0.00000000</i>
   <i name="MCALPHA">      0.00000000</i>
   <i name="ALDAX">      1.00000000</i>
   <i name="AGGAX">      1.00000000</i>
   <i name="ALDAC">      1.00000000</i>
   <i name="AGGAC">      1.00000000</i>
   <i type="int" name="NKREDX">     1</i>
   <i type="int" name="NKREDY">     1</i>
   <i type="int" name="NKREDZ">     1</i>
   <i type="logical" name="SHIFTRED"> F  </i>
   <i type="logical" name="ODDONLY"> F  </i>
   <i type="logical" name="EVENONLY"> F  </i>
   <i type="int" name="LMAXFOCK">     0</i>
   <i type="int" name="NMAXFOCKAE">     0</i>
   <i type="logical" name="LFOCKAEDFT"> F  </i>
   <i name="HFSCREEN">      0.00000000</i>
   <i name="HFSCREENC">      0.00000000</i>
   <i type="int" name="NBANDSGWLOW">     0</i>
  </separator>
  <separator name="vdW DFT" >
   <i type="logical" name="LUSE_VDW"> F  </i>
   <i name="Zab_VDW">     -0.84910000</i>
   <i name="PARAM1">      0.12340000</i>
   <i name="PARAM2">      1.00000000</i>
   <i name="PARAM3">      0.00000000</i>
  </separator>
  <separator name="model GW" >
   <i type="int" name="MODEL_GW">     0</i>
   <i name="MODEL_EPS0">      5.13080030</i>
   <i name="MODEL_ALPHA">      1.00000000</i>
  </separator>
  <separator name="linear response parameters" >
   <i type="logical" name="LEPSILON"> F  </i>
   <i type="logical" name="LRPA"> F  </i>
   <i type="logical" name="LNABLA"> F  </i>
   <i type="logical" name="LVEL"> F  </i>
   <i type="int" name="KINTER">     0</i>
   <i name="CSHIFT">      0.10000000</i>
   <i name="OMEGAMAX">     -1.00000000</i>
   <i name="DEG_THRESHOLD">      0.00200000</i>
  </separator>
  <separator name="orbital magnetization" >
   <i type="logical" name="NUCIND"> F  </i>
   <v name="MAGPOS">      0.00000000      0.00000000      0.00000000</v>
   <i type="logical" name="LNICSALL"> T  </i>
   <i type="logical" name="ORBITALMAG"> F  </i>
   <i type="logical" name="LMAGBLOCH"> F  </i>
   <i type="logical" name="LCHIMAG"> F  </i>
   <i type="logical" name="LGAUGE"> T  </i>
   <i type="int" name="MAGATOM">     0</i>
   <v name="MAGDIPOL">      0.00000000      0.00000000      0.00000000</v>
   <v name="AVECCONST">      0.00000000      0.00000000      0.00000000</v>
  </separator>
  <separator name="response functions" >
   <i type="logical" name="LADDER"> F  </i>
   <i type="logical" name="LFXC"> F  </i>
   <i type="logical" name="LHARTREE"> T  </i>
   <i type="int" name="IBSE">     0</i>
   <i type="logical" name="LTCTE"> F  </i>
   <i type="logical" name="LTETE"> F  </i>
   <i type="logical" name="LTRIPLET"> F  </i>
   <i type="logical" name="LFXCEPS"> F  </i>
   <i type="logical" name="LFXHEG"> F  </i>
   <i type="logical" name="L2ORDER"> F  </i>
   <i type="logical" name="LUSEW"> F  </i>
   <i name="ENCUTGW">     -2.00000000</i>
   <i name="ENCUTGWSOFT">     -2.00000000</i>
   <i name="ENCUTLF">     -1.00000000</i>
   <i type="int" name="LMAXMP2">    -1</i>
   <i name="SCISSOR">      0.00000000</i>
   <i type="int" name="NOMEGA">     0</i>
   <i type="int" name="NOMEGAR">     0</i>
   <i type="int" name="NBANDSGW">    -1</i>
   <i type="int" name="NBANDSO">    -1</i>
   <i type="int" name="NBANDSV">    -1</i>
   <i type="int" name="NELM">   100</i>
   <i type="int" name="DIM">     3</i>
   <i type="int" name="ANTIRES">     0</i>
   <i name="OMEGAMAX">    -30.00000000</i>
   <i name="OMEGAMIN">    -30.00000000</i>
   <i name="OMEGATL">   -200.00000000</i>
   <i type="int" name="OMEGAGRID">     0</i>
   <i name="CSHIFT">     -0.10000000</i>
   <i type="logical" name="SELFENERGY"> F  </i>
   <i type="logical" name="LSPECTRAL"> F  </i>
   <i type="logical" name="ODDONLYGW"> F  </i>
   <i type="logical" name="EVENONLYGW"> F  </i>
   <i type="int" name="NKREDLFX">     1</i>
   <i type="int" name="NKREDLFY">     1</i>
   <i type="int" name="NKREDLFZ">     1</i>
   <i type="int" name="MAXMEM">  1800</i>
   <i type="int" name="TELESCOPE">     0</i>
   <i type="int" name="TAUPAR">     1</i>
  </separator>
  <separator name="External order field" >
   <i name="OFIELD_KAPPA">      0.00000000</i>
   <v name="OFIELD_K">      0.00000000      0.00000000      0.00000000</v>
   <i name="OFIELD_Q6_NEAR">      0.00000000</i>
   <i name="OFIELD_Q6_FAR">      0.00000000</i>
   <i name="OFIELD_A">      0.00000000</i>
  </separator>
 </parameters>
 <atominfo>
  <atoms>       5 </atoms>
  <types>       3 </types>
  <array name="atoms" >
   <dimension dim="1">ion</dimension>
   <field type="string">element</field>
   <field type="int">atomtype</field>
   <set>
    <rc><c>Li</c><c>   1</c></rc>
    <rc><c>Li</c><c>   1</c></rc>
    <rc><c>Ni</c><c>   2</c></rc>
    <rc><c>O </c><c>   3</c></rc>
    <rc><c>O </c><c>   3</c></rc>
   </set>
  </array>
  <array name="atomtypes" >
   <dimension dim="1">type</dimension>
   <field type="int">atomspertype</field>
   <field type="string">element</field>
   <field>mass</field>
   <field>valence</field>
   <field type="string">pseudopotential</field>
   <set>
    <rc><c>   2</c><c>Li</c><c>      7.01000000</c><c>      3.00000000</c><c>  PAW_PBE Li_sv 10Sep2004               </c></rc>
    <rc><c>   1</c><c>Ni</c><c>     58.69000000</c><c>     16.00000000</c><c>  PAW_PBE Ni_pv 06Sep2000               </c></rc>
    <rc><c>   2</c><c>O </c><c>     16.00000000</c><c>      6.00000000</c><c>  PAW_PBE O 08Apr2002                   </c></rc>
   </set>
  </array>
 </atominfo>
 <structure name="initialpos" >
  <crystal>
   <varray name="basis" >
    <v>       3.11617641      -0.00000000       0.00000000 </v>
    <v>      -1.55808771       2.69868772       0.00000000 </v>
    <v>       0.00000000       0.00000000       5.08427692 </v>
   </varray>
   <i name="volume">     42.75666915 </i>
   <varray name="rec_basis" >
    <v>       0.32090609       0.18527518       0.00000000 </v>
    <v>       0.00000000       0.37055047       0.00000000 </v>
    <v>       0.00000000       0.00000000       0.19668480 </v>
   </varray>
  </crystal>
  <varray name="positions" >
   <v>       0.33333300       0.66666700       0.35824069 </v>
   <v>       0.66666700       0.33333300       0.64175931 </v>
   <v>       0.00000000       0.00000000       0.00000000 </v>
   <v>       0.66666700       0.33333300       0.23518788 </v>
   <v>       0.33333300       0.66666700       0.76481212 </v>
  </varray>
 </structure>
 <calculation>
  <scstep>
   <time name="dav">    2.50    2.50</time>
   <time name="total">    3.12    3.12</time>
   <energy>
    <i name="alphaZ">    132.77808030 </i>
    <i name="ewald">  -2723.30114770 </i>
    <i name="hartreedc">  -1700.16375990 </i>
    <i name="XCdc">    172.64230975 </i>
    <i name="pawpsdc">   3763.84346713 </i>
    <i name="pawaedc">  -3914.70216374 </i>
    <i name="eentropy">      0.00000000 </i>
    <i name="bandstr">   -179.24713881 </i>
    <i name="atom">   4771.32717853 </i>
    <i name="e_fr_energy">    323.17682555 </i>
    <i name="e_wo_entrp">    323.17682555 </i>
    <i name="e_0_energy">    323.17682555 </i>
   </energy>
  </scstep>
  <scstep>
   <time name="dav">    2.57    2.57</time>
   <time name="total">    2.61    2.61</time>
   <energy>
    <i name="e_fr_energy">     -1.23894621 </i>
    <i name="e_wo_entrp">     -1.23894621 </i>
    <i name="e_0_energy">     -1.23894621 </i>
   </energy>
  </scstep>
  <scstep>
   <time name="dav">    3.44    3.43</time>
   <time name="total">    3.48    3.47</time>
   <energy>
    <i name="e_fr_energy">    -24.08515233 </i>
    <i name="e_wo_entrp">    -24.08515233 </i>
    <i name="e_0_energy">    -24.08515233 </i>
   </energy>
  </scstep>
  <scstep>
   <time name="dav">    3.58    3.57</time>
   <time name="total">    3.61    3.61</time>
   <energy>
    <i name="e_fr_energy">    -25.85944356 </i>
    <i name="e_wo_entrp">    -25.85944356 </i>
    <i name="e_0_energy">    -25.85944356 </i>
   </energy>
  </scstep>
  <scstep>
   <time name="dav">    3.54    3.54</time>
   <time name="total">    3.66    3.66</time>
   <energy>
    <i name="e_fr_energy">    -25.88233831 </i>
    <i name="e_wo_entrp">    -25.88233831 </i>
    <i name="e_0_energy">    -25.88233831 </i>
   </energy>
  </scstep>
  <scstep>
   <time name="diag">    0.43    0.43</time>
   <time name="diis">    0.75    0.75</time>
   <time name="orth">    0.15    0.15</time>
   <time name="total">    2.04    2.05</time>
   <energy>
    <i name="e_fr_energy">    -37.28855942 </i>
    <i name="e_wo_entrp">    -37.28855942 </i>
    <i name="e_0_energy">    -37.28855942 </i>
   </energy>
  </scstep>
  <scstep>
   <time name="diag">    0.43    0.43</time>
   <time name="diis">    0.69    0.69</time>
   <time name="orth">    0.15    0.15</time>
   <time name="total">    1.95    1.95</time>
   <energy>
    <i name="e_fr_energy">    -25.23867910 </i>
    <i name="e_wo_entrp">    -25.23867910 </i>
    <i name="e_0_energy">    -25.23867910 </i>
   </energy>
  </scstep>
  <scstep>
   <time name="diag">    0.42    0.42</time>
   <time name="diis">    0.66    0.66</time>
   <time name="orth">    0.15    0.15</time>
   <time name="total">    1.92    1.92</time>
   <energy>
    <i name="e_fr_energy">    -23.23882774 </i>
    <i name="e_wo_entrp">    -23.23882774 </i>
    <i name="e_0_energy">    -23.23882774 </i>
   </energy>
  </scstep>
  <scstep>
   <time name="diag">    0.42    0.42</time>
   <time name="diis">    0.70    0.70</time>
   <time name="orth">    0.15    0.15</time>
   <time name="total">    1.96    1.96</time>
   <energy>
    <i name="e_fr_energy">    -23.68589551 </i>
    <i name="e_wo_entrp">    -23.68589551 </i>
    <i name="e_0_energy">    -23.68589551 </i>
   </energy>
  </scstep>
  <scstep>
   <time name="diag">    0.43    0.43</time>
   <time name="diis">    0.68    0.67</time>
   <time name="orth">    0.15    0.15</time>
   <time name="total">    1.94    1.94</time>
   <energy>
    <i name="e_fr_energy">    -23.91839817 </i>
    <i name="e_wo_entrp">    -23.91839817 </i>
    <i name="e_0_energy">    -23.91839817 </i>
   </energy>
  </scstep>
  <scstep>
   <time name="diag">    0.43    0.43</time>
   <time name="diis">    0.68    0.68</time>
   <time name="orth">    0.15    0.15</time>
   <time name="total">    1.94    1.94</time>
   <energy>
    <i name="e_fr_energy">    -24.03079120 </i>
    <i name="e_wo_entrp">    -24.03079120 </i>
    <i name="e_0_energy">    -24.03079120 </i>
   </energy>
  </scstep>
  <scstep>
   <time name="diag">    0.43    0.43</time>
   <time name="diis">    0.74    0.74</time>
   <time name="orth">    0.15    0.15</time>
   <time name="total">    2.01    2.01</time>
   <energy>
    <i name="e_fr_energy">    -24.05052823 </i>
    <i name="e_wo_entrp">    -24.05052823 </i>
    <i name="e_0_energy">    -24.05052823 </i>
   </energy>
  </scstep>
  <scstep>
   <time name="diag">    0.43    0.43</time>
   <time name="diis">    0.80    0.80</time>
   <time name="orth">    0.15    0.15</time>
   <time name="total">    2.06    2.06</time>
   <energy>
    <i name="e_fr_energy">    -24.05131111 </i>
    <i name="e_wo_entrp">    -24.05131111 </i>
    <i name="e_0_energy">    -24.05131111 </i>
   </energy>
  </scstep>
  <scstep>
   <time name="diag">    0.42    0.42</time>
   <time name="diis">    0.84    0.83</time>
   <time name="orth">    0.15    0.15</time>
   <time name="total">    2.10    2.10</time>
   <energy>
    <i name="e_fr_energy">    -24.05144399 </i>
    <i name="e_wo_entrp">    -24.05144399 </i>
    <i name="e_0_energy">    -24.05144399 </i>
   </energy>
  </scstep>
  <scstep>
   <time name="diag">    0.43    0.43</time>
   <time name="diis">    0.75    0.75</time>
   <time name="orth">    0.15    0.15</time>
   <time name="total">    2.01    2.02</time>
   <energy>
    <i name="e_fr_energy">    -24.05145524 </i>
    <i name="e_wo_entrp">    -24.05145524 </i>
    <i name="e_0_energy">    -24.05145524 </i>
   </energy>
  </scstep>
  <scstep>
   <time name="diag">    0.42    0.42</time>
   <time name="diis">    0.71    0.72</time>
   <time name="orth">    0.13    0.13</time>
   <time name="total">    1.95    1.97</time>
   <energy>
    <i name="e_fr_energy">    -24.05147890 </i>
    <i name="e_wo_entrp">    -24.05147890 </i>
    <i name="e_0_energy">    -24.05147890 </i>
   </energy>
  </scstep>
  <scstep>
   <time name="diag">    0.40    0.40</time>
   <time name="diis">    0.57    0.57</time>
   <time name="orth">    0.15    0.15</time>
   <time name="total">    1.72    1.72</time>
   <energy>
    <i name="alphaZ">    132.77808030 </i>
    <i name="ewald">  -2723.30114770 </i>
    <i name="hartreedc">  -1661.88085175 </i>
    <i name="XCdc">    170.92451690 </i>
    <i name="pawpsdc">   4211.13593110 </i>
    <i name="pawaedc">  -4365.54227366 </i>
    <i name="eentropy">      0.00000000 </i>
    <i name="bandstr">   -559.49291752 </i>
    <i name="atom">   4771.32717853 </i>
    <i name="e_fr_energy">    -24.05148379 </i>
    <i name="e_wo_entrp">    -24.05148379 </i>
    <i name="e_0_energy">    -24.05148379 </i>
   </energy>
  </scstep>
  <structure>
   <crystal>
    <varray name="basis" >
     <v>       3.11617641      -0.00000000       0.00000000 </v>
     <v>      -1.55808771       2.69868772       0.00000000 </v>
     <v>       0.00000000       0.00000000       5.08427692 </v>
    </varray>
    <i name="volume">     42.75666915 </i>
    <varray name="rec_basis" >
     <v>       0.32090609       0.18527518       0.00000000 </v>
     <v>       0.00000000       0.37055047       0.00000000 </v>
     <v>       0.00000000       0.00000000       0.19668480 </v>
    </varray>
   </crystal>
   <varray name="positions" >
    <v>       0.33333300       0.66666700       0.35824069 </v>
    <v>       0.66666700       0.33333300       0.64175931 </v>
    <v>       0.00000000       0.00000000       0.00000000 </v>
    <v>       0.66666700       0.33333300       0.23518788 </v>
    <v>       0.33333300       0.66666700       0.76481212 </v>
   </varray>
  </structure>
  <varray name="forces" >
   <v>      -0.00000000       0.00000000       0.00490687 </v>
   <v>       0.00000000      -0.00000000      -0.00490687 </v>
   <v>      -0.00000000       0.00000000      -0.00000000 </v>
   <v>      -0.00000000       0.00000000      -0.00364627 </v>
   <v>       0.00000000      -0.00000000       0.00364627 </v>
  </varray>
  <varray name="stress" >
   <v>      -0.01047887      -0.00000000      -0.00000000 </v>
   <v>      -0.00000000      -0.01047886       0.00000000 </v>
   <v>      -0.00000000      -0.00000000       0.42436473 </v>
  </varray>
  <energy>
   <i name="e_fr_energy">    -24.05148379 </i>
   <i name="e_wo_entrp">    -24.05148379 </i>
   <i name="e_0_energy">      0.00000000 </i>
  </energy>
  <time name="totalsc">   43.57   43.61</time>
  <eigenvalues>
   <array>
    <dimension dim="1">band</dimension>
    <dimension dim="2">kpoint</dimension>
    <dimension dim="3">spin</dimension>
    <field>eigene</field>
    <field>occ</field>
    <set>
     <set comment="spin 1">
      <set comment="kpoint 1">
       <r>  -60.7490    1.0000 </r>
       <r>  -60.7490    1.0000 </r>
       <r>  -60.6920    1.0000 </r>
       <r>  -39.9105    1.0000 </r>
       <r>  -39.7388    1.0000 </r>
       <r>  -13.7007    1.0000 </r>
       <r>  -12.8822    1.0000 </r>
       <r>   -2.4895    1.0000 </r>
       <r>   -2.4895    1.0000 </r>
       <r>   -2.1571    1.0000 </r>
       <r>   -0.7701    1.0000 </r>
       <r>   -0.7701    1.0000 </r>
       <r>    0.3699    1.0000 </r>
       <r>    2.5506    1.0000 </r>
       <r>    2.5506    1.0000 </r>
       <r>    2.7540    1.0000 </r>
       <r>    3.0676    1.0000 </r>
       <r>    3.0676    1.0000 </r>
       <r>    7.2022    0.0000 </r>
       <r>   11.3344    0.0000 </r>
       <r>   12.8232    0.0000 </r>
       <r>   16.5927    0.0000 </r>
       <r>   16.5927    0.0000 </r>
       <r>   18.1203    0.0000 </r>
       <r>   18.1261    0.0000 </r>
      </set>
      <set comment="kpoint 2">
       <r>  -60.7510    1.0000 </r>
       <r>  -60.7497    1.0000 </r>
       <r>  -60.6919    1.0000 </r>
       <r>  -39.9022    1.0000 </r>
       <r>  -39.7421    1.0000 </r>
       <r>  -13.6170    1.0000 </r>
       <r>  -12.8818    1.0000 </r>
       <r>   -2.4616    1.0000 </r>
       <r>   -2.4605    1.0000 </r>
       <r>   -2.0017    1.0000 </r>
       <r>   -0.8755    1.0000 </r>
       <r>   -0.7724    1.0000 </r>
       <r>    0.2776    1.0000 </r>
       <r>    2.0525    1.0000 </r>
       <r>    2.3720    1.0000 </r>
       <r>    2.5429    1.0000 </r>
       <r>    2.9967    1.0000 </r>
       <r>    3.0609    1.0000 </r>
       <r>    7.7693    0.0000 </r>
       <r>   11.7959    0.0000 </r>
       <r>   12.7256    0.0000 </r>
       <r>   16.0359    0.0000 </r>
       <r>   16.8907    0.0000 </r>
       <r>   17.8079    0.0000 </r>
       <r>   18.2617    0.0000 </r>
      </set>
      <set comment="kpoint 3">
       <r>  -60.7549    1.0000 </r>
       <r>  -60.7508    1.0000 </r>
       <r>  -60.6915    1.0000 </r>
       <r>  -39.8798    1.0000 </r>
       <r>  -39.7522    1.0000 </r>
       <r>  -13.4011    1.0000 </r>
       <r>  -12.8843    1.0000 </r>
       <r>   -2.4119    1.0000 </r>
       <r>   -2.3601    1.0000 </r>
       <r>   -1.6084    1.0000 </r>
       <r>   -1.2285    1.0000 </r>
       <r>   -0.7264    1.0000 </r>
       <r>    0.0575    1.0000 </r>
       <r>    1.2747    1.0000 </r>
       <r>    1.9144    1.0000 </r>
       <r>    1.9339    1.0000 </r>
       <r>    2.9178    1.0000 </r>
       <r>    3.0656    1.0000 </r>
       <r>    8.9595    0.0000 </r>
       <r>   12.1044    0.0000 </r>
       <r>   13.0713    0.0000 </r>
       <r>   15.1031    0.0000 </r>
       <r>   16.7989    0.0000 </r>
       <r>   17.1348    0.0000 </r>
       <r>   17.2903    0.0000 </r>
      </set>
      <set comment="kpoint 4">
       <r>  -60.7589    1.0000 </r>
       <r>  -60.7519    1.0000 </r>
       <r>  -60.6912    1.0000 </r>
       <r>  -39.8516    1.0000 </r>
       <r>  -39.7680    1.0000 </r>
       <r>  -13.1524    1.0000 </r>
       <r>  -12.9049    1.0000 </r>
       <r>   -2.3925    1.0000 </r>
       <r>   -2.2127    1.0000 </r>
       <r>   -1.8236    1.0000 </r>
       <r>   -1.0627    1.0000 </r>
       <r>   -0.5794    1.0000 </r>
       <r>   -0.0679    1.0000 </r>
       <r>    0.6629    1.0000 </r>
       <r>    1.4113    1.0000 </r>
       <r>    1.4509    1.0000 </r>
       <r>    2.7820    1.0000 </r>
       <r>    3.0774    1.0000 </r>
       <r>   10.1669    0.0000 </r>
       <r>   11.6583    0.0000 </r>
       <r>   13.1634    0.0000 </r>
       <r>   14.6750    0.0000 </r>
       <r>   16.1055    0.0000 </r>
       <r>   16.6792    0.0000 </r>
       <r>   16.8689    0.0000 </r>
      </set>
      <set comment="kpoint 5">
       <r>  -60.7600    1.0000 </r>
       <r>  -60.7520    1.0000 </r>
       <r>  -60.6908    1.0000 </r>
       <r>  -39.8353    1.0000 </r>
       <r>  -39.7790    1.0000 </r>
       <r>  -12.9793    1.0000 </r>
       <r>  -12.9779    1.0000 </r>
       <r>   -2.3931    1.0000 </r>
       <r>   -2.2178    1.0000 </r>
       <r>   -1.9746    1.0000 </r>
       <r>   -0.8033    1.0000 </r>
       <r>   -0.4700    1.0000 </r>
       <r>   -0.2236    1.0000 </r>
       <r>    0.5469    1.0000 </r>
       <r>    1.1721    1.0000 </r>
       <r>    1.2469    1.0000 </r>
       <r>    2.6853    1.0000 </r>
       <r>    3.0827    1.0000 </r>
       <r>   10.7049    0.0000 </r>
       <r>   11.8289    0.0000 </r>
       <r>   12.2085    0.0000 </r>
       <r>   15.1127    0.0000 </r>
       <r>   16.0381    0.0000 </r>
       <r>   16.4293    0.0000 </r>
       <r>   16.6459    0.0000 </r>
      </set>
      <set comment="kpoint 6">
       <r>  -60.7535    1.0000 </r>
       <r>  -60.7505    1.0000 </r>
       <r>  -60.6916    1.0000 </r>
       <r>  -39.8867    1.0000 </r>
       <r>  -39.7488    1.0000 </r>
       <r>  -13.4668    1.0000 </r>
       <r>  -12.8823    1.0000 </r>
       <r>   -2.4270    1.0000 </r>
       <r>   -2.3889    1.0000 </r>
       <r>   -1.7237    1.0000 </r>
       <r>   -1.0345    1.0000 </r>
       <r>   -0.8376    1.0000 </r>
       <r>    0.1235    1.0000 </r>
       <r>    1.5079    1.0000 </r>
       <r>    1.7725    1.0000 </r>
       <r>    2.4929    1.0000 </r>
       <r>    2.8595    1.0000 </r>
       <r>    2.9849    1.0000 </r>
       <r>    8.6360    0.0000 </r>
       <r>   12.4756    0.0000 </r>
       <r>   12.5499    0.0000 </r>
       <r>   15.4730    0.0000 </r>
       <r>   16.7889    0.0000 </r>
       <r>   17.1911    0.0000 </r>
       <r>   17.8378    0.0000 </r>
      </set>
      <set comment="kpoint 7">
       <r>  -60.7571    1.0000 </r>
       <r>  -60.7520    1.0000 </r>
       <r>  -60.6911    1.0000 </r>
       <r>  -39.8609    1.0000 </r>
       <r>  -39.7623    1.0000 </r>
       <r>  -13.2351    1.0000 </r>
       <r>  -12.8901    1.0000 </r>
       <r>   -2.4016    1.0000 </r>
       <r>   -2.2448    1.0000 </r>
       <r>   -1.4854    1.0000 </r>
       <r>   -1.2510    1.0000 </r>
       <r>   -0.8972    1.0000 </r>
       <r>    0.0476    1.0000 </r>
       <r>    0.8855    1.0000 </r>
       <r>    1.2278    1.0000 </r>
       <r>    2.0593    1.0000 </r>
       <r>    2.7731    1.0000 </r>
       <r>    2.9147    1.0000 </r>
       <r>    9.8628    0.0000 </r>
       <r>   11.9412    0.0000 </r>
       <r>   13.5654    0.0000 </r>
       <r>   14.5509    0.0000 </r>
       <r>   16.0056    0.0000 </r>
       <r>   16.2287    0.0000 </r>
       <r>   17.2385    0.0000 </r>
      </set>
      <set comment="kpoint 8">
       <r>  -60.7593    1.0000 </r>
       <r>  -60.7530    1.0000 </r>
       <r>  -60.6908    1.0000 </r>
       <r>  -39.8354    1.0000 </r>
       <r>  -39.7790    1.0000 </r>
       <r>  -13.0315    1.0000 </r>
       <r>  -12.9248    1.0000 </r>
       <r>   -2.3823    1.0000 </r>
       <r>   -2.1682    1.0000 </r>
       <r>   -1.8370    1.0000 </r>
       <r>   -0.9753    1.0000 </r>
       <r>   -0.8095    1.0000 </r>
       <r>    0.1302    1.0000 </r>
       <r>    0.3601    1.0000 </r>
       <r>    1.1305    1.0000 </r>
       <r>    1.5476    1.0000 </r>
       <r>    2.6747    1.0000 </r>
       <r>    2.8876    1.0000 </r>
       <r>   10.8029    0.0000 </r>
       <r>   11.7965    0.0000 </r>
       <r>   12.7920    0.0000 </r>
       <r>   14.9447    0.0000 </r>
       <r>   15.6297    0.0000 </r>
       <r>   15.9743    0.0000 </r>
       <r>   16.9005    0.0000 </r>
      </set>
      <set comment="kpoint 9">
       <r>  -60.7580    1.0000 </r>
       <r>  -60.7539    1.0000 </r>
       <r>  -60.6908    1.0000 </r>
       <r>  -39.8356    1.0000 </r>
       <r>  -39.7787    1.0000 </r>
       <r>  -13.0530    1.0000 </r>
       <r>  -12.9020    1.0000 </r>
       <r>   -2.3790    1.0000 </r>
       <r>   -2.1234    1.0000 </r>
       <r>   -1.4350    1.0000 </r>
       <r>   -1.3367    1.0000 </r>
       <r>   -1.0944    1.0000 </r>
       <r>    0.1040    1.0000 </r>
       <r>    0.7756    1.0000 </r>
       <r>    0.8021    1.0000 </r>
       <r>    1.8579    1.0000 </r>
       <r>    2.5748    1.0000 </r>
       <r>    2.7257    1.0000 </r>
       <r>   10.9138    0.0000 </r>
       <r>   11.7257    0.0000 </r>
       <r>   13.9019    0.0000 </r>
       <r>   14.5807    0.0000 </r>
       <r>   14.9707    0.0000 </r>
       <r>   15.7026    0.0000 </r>
       <r>   16.7890    0.0000 </r>
      </set>
      <set comment="kpoint 10">
       <r>  -60.7584    1.0000 </r>
       <r>  -60.7554    1.0000 </r>
       <r>  -60.6909    1.0000 </r>
       <r>  -39.8171    1.0000 </r>
       <r>  -39.7937    1.0000 </r>
       <r>  -12.9499    1.0000 </r>
       <r>  -12.9319    1.0000 </r>
       <r>   -2.2994    1.0000 </r>
       <r>   -2.1698    1.0000 </r>
       <r>   -1.5766    1.0000 </r>
       <r>   -1.2669    1.0000 </r>
       <r>   -1.0867    1.0000 </r>
       <r>   -0.0184    1.0000 </r>
       <r>    0.6384    1.0000 </r>
       <r>    1.1725    1.0000 </r>
       <r>    1.4320    1.0000 </r>
       <r>    2.5813    1.0000 </r>
       <r>    2.6004    1.0000 </r>
       <r>   10.9799    0.0000 </r>
       <r>   12.2953    0.0000 </r>
       <r>   13.3818    0.0000 </r>
       <r>   14.6660    0.0000 </r>
       <r>   15.2463    0.0000 </r>
       <r>   15.8076    0.0000 </r>
       <r>   15.9403    0.0000 </r>
      </set>
      <set comment="kpoint 11">
       <r>  -60.7493    1.0000 </r>
       <r>  -60.7493    1.0000 </r>
       <r>  -60.6922    1.0000 </r>
       <r>  -39.9102    1.0000 </r>
       <r>  -39.7393    1.0000 </r>
       <r>  -13.6670    1.0000 </r>
       <r>  -12.9358    1.0000 </r>
       <r>   -2.4862    1.0000 </r>
       <r>   -2.4862    1.0000 </r>
       <r>   -1.9297    1.0000 </r>
       <r>   -0.7696    1.0000 </r>
       <r>   -0.7696    1.0000 </r>
       <r>    0.4998    1.0000 </r>
       <r>    2.1088    1.0000 </r>
       <r>    2.4448    1.0000 </r>
       <r>    2.4448    1.0000 </r>
       <r>    3.1780    1.0000 </r>
       <r>    3.1781    1.0000 </r>
       <r>    7.8811    0.0000 </r>
       <r>   10.7554    0.0000 </r>
       <r>   12.6446    0.0000 </r>
       <r>   16.4391    0.0000 </r>
       <r>   16.4391    0.0000 </r>
       <r>   18.0581    0.0000 </r>
       <r>   18.0582    0.0000 </r>
      </set>
      <set comment="kpoint 12">
       <r>  -60.7510    1.0000 </r>
       <r>  -60.7496    1.0000 </r>
       <r>  -60.6919    1.0000 </r>
       <r>  -39.9018    1.0000 </r>
       <r>  -39.7425    1.0000 </r>
       <r>  -13.5847    1.0000 </r>
       <r>  -12.9307    1.0000 </r>
       <r>   -2.4813    1.0000 </r>
       <r>   -2.4656    1.0000 </r>
       <r>   -1.7820    1.0000 </r>
       <r>   -0.8786    1.0000 </r>
       <r>   -0.7681    1.0000 </r>
       <r>    0.3958    1.0000 </r>
       <r>    1.7857    1.0000 </r>
       <r>    2.4682    1.0000 </r>
       <r>    2.4801    1.0000 </r>
       <r>    2.8337    1.0000 </r>
       <r>    2.9551    1.0000 </r>
       <r>    8.3165    0.0000 </r>
       <r>   10.9652    0.0000 </r>
       <r>   12.8067    0.0000 </r>
       <r>   16.1654    0.0000 </r>
       <r>   16.5338    0.0000 </r>
       <r>   17.2721    0.0000 </r>
       <r>   19.0255    0.0000 </r>
      </set>
      <set comment="kpoint 13">
       <r>  -60.7548    1.0000 </r>
       <r>  -60.7508    1.0000 </r>
       <r>  -60.6915    1.0000 </r>
       <r>  -39.8795    1.0000 </r>
       <r>  -39.7524    1.0000 </r>
       <r>  -13.3762    1.0000 </r>
       <r>  -12.9194    1.0000 </r>
       <r>   -2.4360    1.0000 </r>
       <r>   -2.4266    1.0000 </r>
       <r>   -1.4747    1.0000 </r>
       <r>   -1.1829    1.0000 </r>
       <r>   -0.7174    1.0000 </r>
       <r>    0.0895    1.0000 </r>
       <r>    1.4955    1.0000 </r>
       <r>    1.9919    1.0000 </r>
       <r>    2.1136    1.0000 </r>
       <r>    2.4475    1.0000 </r>
       <r>    2.8429    1.0000 </r>
       <r>    9.3630    0.0000 </r>
       <r>   10.8152    0.0000 </r>
       <r>   13.6353    0.0000 </r>
       <r>   15.3269    0.0000 </r>
       <r>   16.9001    0.0000 </r>
       <r>   16.9094    0.0000 </r>
       <r>   17.4303    0.0000 </r>
      </set>
      <set comment="kpoint 14">
       <r>  -60.7586    1.0000 </r>
       <r>  -60.7518    1.0000 </r>
       <r>  -60.6910    1.0000 </r>
       <r>  -39.8514    1.0000 </r>
       <r>  -39.7681    1.0000 </r>
       <r>  -13.1432    1.0000 </r>
       <r>  -12.9184    1.0000 </r>
       <r>   -2.4138    1.0000 </r>
       <r>   -2.2973    1.0000 </r>
       <r>   -1.8221    1.0000 </r>
       <r>   -0.9303    1.0000 </r>
       <r>   -0.5714    1.0000 </r>
       <r>   -0.1585    1.0000 </r>
       <r>    0.8183    1.0000 </r>
       <r>    1.5977    1.0000 </r>
       <r>    1.7245    1.0000 </r>
       <r>    2.4482    1.0000 </r>
       <r>    2.8632    1.0000 </r>
       <r>   10.1849    0.0000 </r>
       <r>   10.6434    0.0000 </r>
       <r>   14.2538    0.0000 </r>
       <r>   14.6767    0.0000 </r>
       <r>   16.0385    0.0000 </r>
       <r>   16.8700    0.0000 </r>
       <r>   17.0228    0.0000 </r>
      </set>
      <set comment="kpoint 15">
       <r>  -60.7603    1.0000 </r>
       <r>  -60.7525    1.0000 </r>
       <r>  -60.6909    1.0000 </r>
       <r>  -39.8354    1.0000 </r>
       <r>  -39.7791    1.0000 </r>
       <r>  -12.9923    1.0000 </r>
       <r>  -12.9688    1.0000 </r>
       <r>   -2.4118    1.0000 </r>
       <r>   -2.1625    1.0000 </r>
       <r>   -1.9928    1.0000 </r>
       <r>   -0.7999    1.0000 </r>
       <r>   -0.4741    1.0000 </r>
       <r>   -0.4212    1.0000 </r>
       <r>    0.6139    1.0000 </r>
       <r>    1.3321    1.0000 </r>
       <r>    1.4604    1.0000 </r>
       <r>    2.7152    1.0000 </r>
       <r>    2.9049    1.0000 </r>
       <r>    9.7116    0.0000 </r>
       <r>   11.6047    0.0000 </r>
       <r>   13.4328    0.0000 </r>
       <r>   15.1796    0.0000 </r>
       <r>   15.4660    0.0000 </r>
       <r>   16.6589    0.0000 </r>
       <r>   17.2871    0.0000 </r>
      </set>
      <set comment="kpoint 16">
       <r>  -60.7587    1.0000 </r>
       <r>  -60.7519    1.0000 </r>
       <r>  -60.6910    1.0000 </r>
       <r>  -39.8516    1.0000 </r>
       <r>  -39.7680    1.0000 </r>
       <r>  -13.1313    1.0000 </r>
       <r>  -12.9321    1.0000 </r>
       <r>   -2.3992    1.0000 </r>
       <r>   -2.1932    1.0000 </r>
       <r>   -1.7824    1.0000 </r>
       <r>   -1.0801    1.0000 </r>
       <r>   -0.5867    1.0000 </r>
       <r>   -0.0597    1.0000 </r>
       <r>    0.6028    1.0000 </r>
       <r>    1.4605    1.0000 </r>
       <r>    1.5124    1.0000 </r>
       <r>    2.9219    1.0000 </r>
       <r>    2.9686    1.0000 </r>
       <r>    9.4237    0.0000 </r>
       <r>   11.8399    0.0000 </r>
       <r>   13.4962    0.0000 </r>
       <r>   14.5524    0.0000 </r>
       <r>   15.9610    0.0000 </r>
       <r>   16.7271    0.0000 </r>
       <r>   17.7888    0.0000 </r>
      </set>
      <set comment="kpoint 17">
       <r>  -60.7548    1.0000 </r>
       <r>  -60.7508    1.0000 </r>
       <r>  -60.6915    1.0000 </r>
       <r>  -39.8796    1.0000 </r>
       <r>  -39.7524    1.0000 </r>
       <r>  -13.3728    1.0000 </r>
       <r>  -12.9240    1.0000 </r>
       <r>   -2.4077    1.0000 </r>
       <r>   -2.3937    1.0000 </r>
       <r>   -1.4899    1.0000 </r>
       <r>   -1.1897    1.0000 </r>
       <r>   -0.7340    1.0000 </r>
       <r>    0.1852    1.0000 </r>
       <r>    1.2993    1.0000 </r>
       <r>    1.6547    1.0000 </r>
       <r>    1.9127    1.0000 </r>
       <r>    2.9161    1.0000 </r>
       <r>    3.0717    1.0000 </r>
       <r>    8.9625    0.0000 </r>
       <r>   11.6167    0.0000 </r>
       <r>   13.2363    0.0000 </r>
       <r>   14.8402    0.0000 </r>
       <r>   16.8905    0.0000 </r>
       <r>   17.0120    0.0000 </r>
       <r>   18.2706    0.0000 </r>
      </set>
      <set comment="kpoint 18">
       <r>  -60.7509    1.0000 </r>
       <r>  -60.7496    1.0000 </r>
       <r>  -60.6919    1.0000 </r>
       <r>  -39.9018    1.0000 </r>
       <r>  -39.7425    1.0000 </r>
       <r>  -13.5844    1.0000 </r>
       <r>  -12.9313    1.0000 </r>
       <r>   -2.4819    1.0000 </r>
       <r>   -2.4543    1.0000 </r>
       <r>   -1.7898    1.0000 </r>
       <r>   -0.8700    1.0000 </r>
       <r>   -0.7758    1.0000 </r>
       <r>    0.4110    1.0000 </r>
       <r>    1.8467    1.0000 </r>
       <r>    2.2532    1.0000 </r>
       <r>    2.3838    1.0000 </r>
       <r>    2.8471    1.0000 </r>
       <r>    3.1905    1.0000 </r>
       <r>    8.2635    0.0000 </r>
       <r>   11.0845    0.0000 </r>
       <r>   12.7517    0.0000 </r>
       <r>   15.8269    0.0000 </r>
       <r>   16.9686    0.0000 </r>
       <r>   17.5595    0.0000 </r>
       <r>   18.1546    0.0000 </r>
      </set>
      <set comment="kpoint 19">
       <r>  -60.7535    1.0000 </r>
       <r>  -60.7505    1.0000 </r>
       <r>  -60.6917    1.0000 </r>
       <r>  -39.8864    1.0000 </r>
       <r>  -39.7491    1.0000 </r>
       <r>  -13.4382    1.0000 </r>
       <r>  -12.9236    1.0000 </r>
       <r>   -2.4419    1.0000 </r>
       <r>   -2.4275    1.0000 </r>
       <r>   -1.5458    1.0000 </r>
       <r>   -1.0339    1.0000 </r>
       <r>   -0.8280    1.0000 </r>
       <r>    0.2176    1.0000 </r>
       <r>    1.5644    1.0000 </r>
       <r>    1.8446    1.0000 </r>
       <r>    2.2392    1.0000 </r>
       <r>    2.6562    1.0000 </r>
       <r>    3.0030    1.0000 </r>
       <r>    8.9407    0.0000 </r>
       <r>   11.2309    0.0000 </r>
       <r>   13.2101    0.0000 </r>
       <r>   15.3758    0.0000 </r>
       <r>   16.7223    0.0000 </r>
       <r>   17.1591    0.0000 </r>
       <r>   17.9143    0.0000 </r>
      </set>
      <set comment="kpoint 20">
       <r>  -60.7571    1.0000 </r>
       <r>  -60.7520    1.0000 </r>
       <r>  -60.6911    1.0000 </r>
       <r>  -39.8607    1.0000 </r>
       <r>  -39.7625    1.0000 </r>
       <r>  -13.2171    1.0000 </r>
       <r>  -12.9148    1.0000 </r>
       <r>   -2.4118    1.0000 </r>
       <r>   -2.3319    1.0000 </r>
       <r>   -1.4882    1.0000 </r>
       <r>   -1.1207    1.0000 </r>
       <r>   -0.8631    1.0000 </r>
       <r>    0.0593    1.0000 </r>
       <r>    1.1242    1.0000 </r>
       <r>    1.2703    1.0000 </r>
       <r>    2.1472    1.0000 </r>
       <r>    2.3151    1.0000 </r>
       <r>    2.9156    1.0000 </r>
       <r>   10.1118    0.0000 </r>
       <r>   10.8288    0.0000 </r>
       <r>   14.2113    0.0000 </r>
       <r>   14.6324    0.0000 </r>
       <r>   15.9718    0.0000 </r>
       <r>   16.5891    0.0000 </r>
       <r>   17.4198    0.0000 </r>
      </set>
      <set comment="kpoint 21">
       <r>  -60.7594    1.0000 </r>
       <r>  -60.7530    1.0000 </r>
       <r>  -60.6908    1.0000 </r>
       <r>  -39.8354    1.0000 </r>
       <r>  -39.7790    1.0000 </r>
       <r>  -13.0315    1.0000 </r>
       <r>  -12.9286    1.0000 </r>
       <r>   -2.3906    1.0000 </r>
       <r>   -2.1923    1.0000 </r>
       <r>   -1.8344    1.0000 </r>
       <r>   -0.8830    1.0000 </r>
       <r>   -0.8296    1.0000 </r>
       <r>   -0.0268    1.0000 </r>
       <r>    0.5425    1.0000 </r>
       <r>    1.0891    1.0000 </r>
       <r>    1.7628    1.0000 </r>
       <r>    2.5038    1.0000 </r>
       <r>    2.8825    1.0000 </r>
       <r>   10.3115    0.0000 </r>
       <r>   11.3830    0.0000 </r>
       <r>   13.5657    0.0000 </r>
       <r>   14.5714    0.0000 </r>
       <r>   15.8125    0.0000 </r>
       <r>   16.4388    0.0000 </r>
       <r>   17.2864    0.0000 </r>
      </set>
      <set comment="kpoint 22">
       <r>  -60.7594    1.0000 </r>
       <r>  -60.7530    1.0000 </r>
       <r>  -60.6908    1.0000 </r>
       <r>  -39.8355    1.0000 </r>
       <r>  -39.7789    1.0000 </r>
       <r>  -13.0183    1.0000 </r>
       <r>  -12.9426    1.0000 </r>
       <r>   -2.3915    1.0000 </r>
       <r>   -2.1176    1.0000 </r>
       <r>   -1.8276    1.0000 </r>
       <r>   -0.9937    1.0000 </r>
       <r>   -0.7878    1.0000 </r>
       <r>    0.0053    1.0000 </r>
       <r>    0.3481    1.0000 </r>
       <r>    1.3434    1.0000 </r>
       <r>    1.4624    1.0000 </r>
       <r>    2.6775    1.0000 </r>
       <r>    2.9506    1.0000 </r>
       <r>    9.9922    0.0000 </r>
       <r>   11.8933    0.0000 </r>
       <r>   13.2945    0.0000 </r>
       <r>   14.8220    0.0000 </r>
       <r>   15.2525    0.0000 </r>
       <r>   16.8291    0.0000 </r>
       <r>   17.1357    0.0000 </r>
      </set>
      <set comment="kpoint 23">
       <r>  -60.7571    1.0000 </r>
       <r>  -60.7520    1.0000 </r>
       <r>  -60.6911    1.0000 </r>
       <r>  -39.8608    1.0000 </r>
       <r>  -39.7624    1.0000 </r>
       <r>  -13.2126    1.0000 </r>
       <r>  -12.9202    1.0000 </r>
       <r>   -2.4032    1.0000 </r>
       <r>   -2.2833    1.0000 </r>
       <r>   -1.4452    1.0000 </r>
       <r>   -1.1912    1.0000 </r>
       <r>   -0.8720    1.0000 </r>
       <r>    0.1347    1.0000 </r>
       <r>    0.7736    1.0000 </r>
       <r>    1.4271    1.0000 </r>
       <r>    1.8313    1.0000 </r>
       <r>    2.6731    1.0000 </r>
       <r>    3.0309    1.0000 </r>
       <r>    9.6257    0.0000 </r>
       <r>   11.5731    0.0000 </r>
       <r>   13.9493    0.0000 </r>
       <r>   14.2989    0.0000 </r>
       <r>   15.9021    0.0000 </r>
       <r>   17.0534    0.0000 </r>
       <r>   17.2042    0.0000 </r>
      </set>
      <set comment="kpoint 24">
       <r>  -60.7583    1.0000 </r>
       <r>  -60.7539    1.0000 </r>
       <r>  -60.6907    1.0000 </r>
       <r>  -39.8355    1.0000 </r>
       <r>  -39.7788    1.0000 </r>
       <r>  -13.0427    1.0000 </r>
       <r>  -12.9171    1.0000 </r>
       <r>   -2.3753    1.0000 </r>
       <r>   -2.1566    1.0000 </r>
       <r>   -1.4470    1.0000 </r>
       <r>   -1.2526    1.0000 </r>
       <r>   -1.0269    1.0000 </r>
       <r>    0.1376    1.0000 </r>
       <r>    0.5250    1.0000 </r>
       <r>    0.9923    1.0000 </r>
       <r>    1.6873    1.0000 </r>
       <r>    2.5279    1.0000 </r>
       <r>    2.9232    1.0000 </r>
       <r>   10.7649    0.0000 </r>
       <r>   11.3995    0.0000 </r>
       <r>   13.6163    0.0000 </r>
       <r>   14.3290    0.0000 </r>
       <r>   15.4096    0.0000 </r>
       <r>   16.4665    0.0000 </r>
       <r>   17.1916    0.0000 </r>
      </set>
      <set comment="kpoint 25">
       <r>  -60.7582    1.0000 </r>
       <r>  -60.7554    1.0000 </r>
       <r>  -60.6905    1.0000 </r>
       <r>  -39.8170    1.0000 </r>
       <r>  -39.7936    1.0000 </r>
       <r>  -12.9492    1.0000 </r>
       <r>  -12.9365    1.0000 </r>
       <r>   -2.2951    1.0000 </r>
       <r>   -2.1495    1.0000 </r>
       <r>   -1.5383    1.0000 </r>
       <r>   -1.1825    1.0000 </r>
       <r>   -1.0843    1.0000 </r>
       <r>   -0.0174    1.0000 </r>
       <r>    0.4327    1.0000 </r>
       <r>    1.0689    1.0000 </r>
       <r>    1.3734    1.0000 </r>
       <r>    2.6496    1.0000 </r>
       <r>    2.8342    1.0000 </r>
       <r>   10.9190    0.0000 </r>
       <r>   12.2524    0.0000 </r>
       <r>   12.8747    0.0000 </r>
       <r>   13.7321    0.0000 </r>
       <r>   15.9762    0.0000 </r>
       <r>   16.5179    0.0000 </r>
       <r>   16.7854    0.0000 </r>
      </set>
      <set comment="kpoint 26">
       <r>  -60.7498    1.0000 </r>
       <r>  -60.7498    1.0000 </r>
       <r>  -60.6927    1.0000 </r>
       <r>  -39.9099    1.0000 </r>
       <r>  -39.7398    1.0000 </r>
       <r>  -13.6279    1.0000 </r>
       <r>  -12.9949    1.0000 </r>
       <r>   -2.4833    1.0000 </r>
       <r>   -2.4833    1.0000 </r>
       <r>   -1.6732    1.0000 </r>
       <r>   -0.7694    1.0000 </r>
       <r>   -0.7694    1.0000 </r>
       <r>    1.0238    1.0000 </r>
       <r>    1.0980    1.0000 </r>
       <r>    2.3637    1.0000 </r>
       <r>    2.3637    1.0000 </r>
       <r>    3.2638    1.0000 </r>
       <r>    3.2638    1.0000 </r>
       <r>    8.8416    0.0000 </r>
       <r>    9.8921    0.0000 </r>
       <r>   12.4199    0.0000 </r>
       <r>   16.3189    0.0000 </r>
       <r>   16.3189    0.0000 </r>
       <r>   17.9323    0.0000 </r>
       <r>   17.9323    0.0000 </r>
      </set>
      <set comment="kpoint 27">
       <r>  -60.7507    1.0000 </r>
       <r>  -60.7500    1.0000 </r>
       <r>  -60.6920    1.0000 </r>
       <r>  -39.9014    1.0000 </r>
       <r>  -39.7429    1.0000 </r>
       <r>  -13.5469    1.0000 </r>
       <r>  -12.9855    1.0000 </r>
       <r>   -2.4932    1.0000 </r>
       <r>   -2.4588    1.0000 </r>
       <r>   -1.5624    1.0000 </r>
       <r>   -0.8727    1.0000 </r>
       <r>   -0.7717    1.0000 </r>
       <r>    0.7146    1.0000 </r>
       <r>    1.2728    1.0000 </r>
       <r>    2.3169    1.0000 </r>
       <r>    2.3488    1.0000 </r>
       <r>    2.7838    1.0000 </r>
       <r>    3.1172    1.0000 </r>
       <r>    9.0977    0.0000 </r>
       <r>   10.1029    0.0000 </r>
       <r>   12.6716    0.0000 </r>
       <r>   15.9470    0.0000 </r>
       <r>   16.5184    0.0000 </r>
       <r>   17.5690    0.0000 </r>
       <r>   18.1746    0.0000 </r>
      </set>
      <set comment="kpoint 28">
       <r>  -60.7547    1.0000 </r>
       <r>  -60.7507    1.0000 </r>
       <r>  -60.6913    1.0000 </r>
       <r>  -39.8792    1.0000 </r>
       <r>  -39.7526    1.0000 </r>
       <r>  -13.3427    1.0000 </r>
       <r>  -12.9640    1.0000 </r>
       <r>   -2.4578    1.0000 </r>
       <r>   -2.4223    1.0000 </r>
       <r>   -1.3891    1.0000 </r>
       <r>   -1.1233    1.0000 </r>
       <r>   -0.7245    1.0000 </r>
       <r>    0.2370    1.0000 </r>
       <r>    1.5305    1.0000 </r>
       <r>    1.6798    1.0000 </r>
       <r>    2.1092    1.0000 </r>
       <r>    2.4402    1.0000 </r>
       <r>    2.8515    1.0000 </r>
       <r>    9.5128    0.0000 </r>
       <r>   10.4214    0.0000 </r>
       <r>   13.4983    0.0000 </r>
       <r>   15.0942    0.0000 </r>
       <r>   16.8209    0.0000 </r>
       <r>   16.8936    0.0000 </r>
       <r>   18.8583    0.0000 </r>
      </set>
      <set comment="kpoint 29">
       <r>  -60.7588    1.0000 </r>
       <r>  -60.7518    1.0000 </r>
       <r>  -60.6908    1.0000 </r>
       <r>  -39.8514    1.0000 </r>
       <r>  -39.7681    1.0000 </r>
       <r>  -13.1192    1.0000 </r>
       <r>  -12.9488    1.0000 </r>
       <r>   -2.4203    1.0000 </r>
       <r>   -2.2825    1.0000 </r>
       <r>   -1.7770    1.0000 </r>
       <r>   -0.9392    1.0000 </r>
       <r>   -0.5787    1.0000 </r>
       <r>   -0.1684    1.0000 </r>
       <r>    0.7066    1.0000 </r>
       <r>    1.7368    1.0000 </r>
       <r>    1.8688    1.0000 </r>
       <r>    2.5037    1.0000 </r>
[...]
        <r>  0.0349  0.0001  0.0000  0.0000  0.1099  0.0420  0.2450  0.1261  0.0366 </r>
        <r>  0.0009  0.0319  0.0237  0.0628  0.0000  0.0000  0.0000  0.0000  0.0000 </r>
        <r>  0.0009  0.0319  0.0237  0.0628  0.0000  0.0000  0.0000  0.0000  0.0000 </r>
       </set>
       <set comment="band 13">
        <r>  0.0043  0.0019  0.0001  0.0007  0.0000  0.0000  0.0000  0.0000  0.0000 </r>
        <r>  0.0043  0.0019  0.0001  0.0007  0.0000  0.0000  0.0000  0.0000  0.0000 </r>
        <r>  0.0001  0.0145  0.0000  0.0048  0.2135  0.0152  0.0819  0.0456  0.0712 </r>
        <r>  0.0003  0.0380  0.0384  0.0917  0.0000  0.0000  0.0000  0.0000  0.0000 </r>
        <r>  0.0003  0.0380  0.0384  0.0917  0.0000  0.0000  0.0000  0.0000  0.0000 </r>
       </set>
       <set comment="band 14">
        <r>  0.0013  0.0014  0.0064  0.0021  0.0000  0.0000  0.0000  0.0000  0.0000 </r>
        <r>  0.0013  0.0014  0.0064  0.0021  0.0000  0.0000  0.0000  0.0000  0.0000 </r>
        <r>  0.0000  0.0003  0.0062  0.0009  0.0004  0.0618  0.0000  0.0206  0.0011 </r>
        <r>  0.0000  0.0256  0.2578  0.0085  0.0000  0.0000  0.0000  0.0000  0.0000 </r>
        <r>  0.0000  0.0256  0.2578  0.0085  0.0000  0.0000  0.0000  0.0000  0.0000 </r>
       </set>
       <set comment="band 15">
        <r>  0.0063  0.0011  0.0007  0.0007  0.0000  0.0000  0.0000  0.0000  0.0000 </r>
        <r>  0.0063  0.0011  0.0007  0.0007  0.0000  0.0000  0.0000  0.0000  0.0000 </r>
        <r>  0.0000  0.0039  0.0000  0.0116  0.0701  0.0404  0.0000  0.0135  0.2103 </r>
        <r>  0.0000  0.0829  0.0009  0.1344  0.0000  0.0000  0.0000  0.0000  0.0000 </r>
        <r>  0.0000  0.0829  0.0009  0.1344  0.0000  0.0000  0.0000  0.0000  0.0000 </r>
       </set>
       <set comment="band 16">
        <r>  0.0012  0.0003  0.0033  0.0001  0.0000  0.0000  0.0000  0.0000  0.0000 </r>
        <r>  0.0012  0.0003  0.0033  0.0001  0.0000  0.0000  0.0000  0.0000  0.0000 </r>
        <r>  0.0003  0.0029  0.0000  0.0010  0.0581  0.0062  0.1086  0.0186  0.0193 </r>
        <r>  0.0001  0.0620  0.1719  0.0361  0.0000  0.0000  0.0000  0.0000  0.0000 </r>
        <r>  0.0001  0.0620  0.1719  0.0361  0.0000  0.0000  0.0000  0.0000  0.0000 </r>
       </set>
       <set comment="band 17">
        <r>  0.0007  0.0028  0.0018  0.0010  0.0000  0.0000  0.0000  0.0000  0.0000 </r>
        <r>  0.0007  0.0028  0.0018  0.0010  0.0000  0.0000  0.0000  0.0000  0.0000 </r>
        <r>  0.0000  0.0001  0.0001  0.0004  0.0670  0.4116  0.0000  0.1372  0.2011 </r>
        <r>  0.0131  0.0042  0.0189  0.0055  0.0000  0.0000  0.0000  0.0000  0.0000 </r>
        <r>  0.0131  0.0042  0.0189  0.0055  0.0000  0.0000  0.0000  0.0000  0.0000 </r>
       </set>
       <set comment="band 18">
        <r>  0.0013  0.0001  0.0013  0.0002  0.0000  0.0000  0.0000  0.0000  0.0000 </r>
        <r>  0.0013  0.0001  0.0013  0.0002  0.0000  0.0000  0.0000  0.0000  0.0000 </r>
        <r>  0.0000  0.0002  0.0000  0.0001  0.2071  0.1387  0.0001  0.4160  0.0690 </r>
        <r>  0.0038  0.0142  0.0178  0.0186  0.0000  0.0000  0.0000  0.0000  0.0000 </r>
        <r>  0.0038  0.0142  0.0178  0.0186  0.0000  0.0000  0.0000  0.0000  0.0000 </r>
       </set>
       <set comment="band 19">
        <r>  0.0040  0.0195  0.0120  0.0078  0.0000  0.0000  0.0000  0.0000  0.0000 </r>
        <r>  0.0040  0.0195  0.0120  0.0078  0.0000  0.0000  0.0000  0.0000  0.0000 </r>
        <r>  0.0000  0.0032  0.0052  0.0095  0.0079  0.0085  0.0000  0.0028  0.0238 </r>
        <r>  0.0090  0.0364  0.0188  0.0513  0.0000  0.0000  0.0000  0.0000  0.0000 </r>
        <r>  0.0090  0.0364  0.0188  0.0513  0.0000  0.0000  0.0000  0.0000  0.0000 </r>
       </set>
       <set comment="band 20">
        <r>  0.0009  0.0135  0.0216  0.0117  0.0000  0.0000  0.0000  0.0000  0.0000 </r>
        <r>  0.0009  0.0135  0.0216  0.0117  0.0000  0.0000  0.0000  0.0000  0.0000 </r>
        <r>  0.1575  0.0350  0.0000  0.0117  0.0034  0.0003  0.0001  0.0009  0.0011 </r>
        <r>  0.0374  0.0524  0.0138  0.0190  0.0000  0.0000  0.0000  0.0000  0.0000 </r>
        <r>  0.0374  0.0524  0.0138  0.0190  0.0000  0.0000  0.0000  0.0000  0.0000 </r>
       </set>
       <set comment="band 21">
        <r>  0.0004  0.0004  0.0242  0.0009  0.0000  0.0000  0.0000  0.0000  0.0000 </r>
        <r>  0.0004  0.0004  0.0242  0.0009  0.0000  0.0000  0.0000  0.0000  0.0000 </r>
        <r>  0.2032  0.0634  0.0000  0.0211  0.0040  0.0003  0.0085  0.0009  0.0013 </r>
        <r>  0.0040  0.0348  0.0022  0.0608  0.0000  0.0000  0.0000  0.0000  0.0000 </r>
        <r>  0.0040  0.0348  0.0022  0.0608  0.0000  0.0000  0.0000  0.0000  0.0000 </r>
       </set>
       <set comment="band 22">
        <r>  0.0042  0.0060  0.0635  0.0151  0.0000  0.0000  0.0000  0.0000  0.0000 </r>
        <r>  0.0042  0.0060  0.0635  0.0151  0.0000  0.0000  0.0000  0.0000  0.0000 </r>
        <r>  0.0000  0.0152  0.0098  0.0457  0.0071  0.0068  0.0000  0.0023  0.0214 </r>
        <r>  0.0075  0.0596  0.0014  0.0202  0.0000  0.0000  0.0000  0.0000  0.0000 </r>
        <r>  0.0075  0.0596  0.0014  0.0202  0.0000  0.0000  0.0000  0.0000  0.0000 </r>
       </set>
       <set comment="band 23">
        <r>  0.0401  0.0216  0.0017  0.0621  0.0000  0.0000  0.0000  0.0000  0.0000 </r>
        <r>  0.0405  0.0217  0.0016  0.0622  0.0000  0.0000  0.0000  0.0000  0.0000 </r>
        <r>  0.0000  0.0000  0.0615  0.0001  0.0047  0.0167  0.0000  0.0056  0.0142 </r>
        <r>  0.0173  0.0190  0.0246  0.0184  0.0000  0.0000  0.0000  0.0000  0.0000 </r>
        <r>  0.0173  0.0191  0.0247  0.0183  0.0000  0.0000  0.0000  0.0000  0.0000 </r>
       </set>
       <set comment="band 24">
        <r>  0.0387  0.0600  0.0040  0.0427  0.0000  0.0000  0.0000  0.0000  0.0000 </r>
        <r>  0.0397  0.0611  0.0042  0.0425  0.0000  0.0000  0.0000  0.0000  0.0000 </r>
        <r>  0.0112  0.0080  0.0000  0.0027  0.0072  0.0007  0.0027  0.0023  0.0024 </r>
        <r>  0.0027  0.0421  0.0609  0.0262  0.0000  0.0000  0.0000  0.0000  0.0000 </r>
        <r>  0.0028  0.0426  0.0596  0.0265  0.0000  0.0000  0.0000  0.0000  0.0000 </r>
       </set>
       <set comment="band 25">
        <r>  0.0297  0.0036  0.0172  0.0105  0.0000  0.0000  0.0000  0.0000  0.0000 </r>
        <r>  0.0252  0.0027  0.0162  0.0087  0.0000  0.0000  0.0000  0.0000  0.0000 </r>
        <r>  0.0000  0.0183  0.1641  0.0534  0.0010  0.0019  0.0001  0.0006  0.0030 </r>
        <r>  0.0010  0.0076  0.0466  0.0201  0.0000  0.0000  0.0000  0.0000  0.0000 </r>
        <r>  0.0012  0.0069  0.0472  0.0196  0.0000  0.0000  0.0000  0.0000  0.0000 </r>
       </set>
      </set>
      <set comment="kpoint 35">
       <set comment="band 1">
        <r>  0.0000  0.0000  0.0000  0.0000  0.0000  0.0000  0.0000  0.0000  0.0000 </r>
        <r>  0.0000  0.0000  0.0000  0.0000  0.0000  0.0000  0.0000  0.0000  0.0000 </r>
        <r>  0.0000  0.2476  0.0000  0.7487  0.0000  0.0000  0.0000  0.0000  0.0000 </r>
        <r>  0.0000  0.0000  0.0000  0.0000  0.0000  0.0000  0.0000  0.0000  0.0000 </r>
        <r>  0.0000  0.0000  0.0000  0.0000  0.0000  0.0000  0.0000  0.0000  0.0000 </r>
       </set>
       <set comment="band 2">
        <r>  0.0000  0.0000  0.0000  0.0000  0.0000  0.0000  0.0000  0.0000  0.0000 </r>
        <r>  0.0000  0.0000  0.0000  0.0000  0.0000  0.0000  0.0000  0.0000  0.0000 </r>
        <r>  0.0000  0.7488  0.0000  0.2476  0.0000  0.0000  0.0000  0.0000  0.0000 </r>
        <r>  0.0000  0.0000  0.0000  0.0000  0.0000  0.0000  0.0000  0.0000  0.0000 </r>
        <r>  0.0000  0.0000  0.0000  0.0000  0.0000  0.0000  0.0000  0.0000  0.0000 </r>
       </set>
       <set comment="band 3">
        <r>  0.0000  0.0000  0.0000  0.0000  0.0000  0.0000  0.0000  0.0000  0.0000 </r>
        <r>  0.0000  0.0000  0.0000  0.0000  0.0000  0.0000  0.0000  0.0000  0.0000 </r>
        <r>  0.0000  0.0000  0.9966  0.0000  0.0000  0.0000  0.0000  0.0000  0.0000 </r>
        <r>  0.0000  0.0000  0.0000  0.0000  0.0000  0.0000  0.0000  0.0000  0.0000 </r>
        <r>  0.0000  0.0000  0.0000  0.0000  0.0000  0.0000  0.0000  0.0000  0.0000 </r>
       </set>
       <set comment="band 4">
        <r>  0.4939  0.0000  0.0000  0.0000  0.0000  0.0000  0.0000  0.0000  0.0000 </r>
        <r>  0.4939  0.0000  0.0000  0.0000  0.0000  0.0000  0.0000  0.0000  0.0000 </r>
        <r>  0.0000  0.0000  0.0000  0.0000  0.0000  0.0000  0.0000  0.0000  0.0000 </r>
        <r>  0.0000  0.0001  0.0000  0.0001  0.0000  0.0000  0.0000  0.0000  0.0000 </r>
        <r>  0.0000  0.0001  0.0000  0.0001  0.0000  0.0000  0.0000  0.0000  0.0000 </r>
       </set>
       <set comment="band 5">
        <r>  0.4943  0.0000  0.0000  0.0000  0.0000  0.0000  0.0000  0.0000  0.0000 </r>
        <r>  0.4943  0.0000  0.0000  0.0000  0.0000  0.0000  0.0000  0.0000  0.0000 </r>
        <r>  0.0000  0.0000  0.0000  0.0000  0.0000  0.0000  0.0000  0.0000  0.0000 </r>
        <r>  0.0000  0.0001  0.0000  0.0001  0.0000  0.0000  0.0000  0.0000  0.0000 </r>
        <r>  0.0000  0.0001  0.0000  0.0001  0.0000  0.0000  0.0000  0.0000  0.0000 </r>
       </set>
       <set comment="band 6">
        <r>  0.0000  0.0005  0.0003  0.0007  0.0000  0.0000  0.0000  0.0000  0.0000 </r>
        <r>  0.0000  0.0005  0.0003  0.0007  0.0000  0.0000  0.0000  0.0000  0.0000 </r>
        <r>  0.0000  0.0015  0.0002  0.0045  0.0004  0.0017  0.0000  0.0006  0.0012 </r>
        <r>  0.3848  0.0000  0.0000  0.0000  0.0000  0.0000  0.0000  0.0000  0.0000 </r>
        <r>  0.3848  0.0000  0.0000  0.0000  0.0000  0.0000  0.0000  0.0000  0.0000 </r>
       </set>
       <set comment="band 7">
        <r>  0.0006  0.0005  0.0001  0.0007  0.0000  0.0000  0.0000  0.0000  0.0000 </r>
        <r>  0.0006  0.0005  0.0001  0.0007  0.0000  0.0000  0.0000  0.0000  0.0000 </r>
        <r>  0.0006  0.0023  0.0000  0.0008  0.0022  0.0012  0.0000  0.0035  0.0007 </r>
        <r>  0.3861  0.0000  0.0000  0.0000  0.0000  0.0000  0.0000  0.0000  0.0000 </r>
        <r>  0.3861  0.0000  0.0000  0.0000  0.0000  0.0000  0.0000  0.0000  0.0000 </r>
       </set>
       <set comment="band 8">
        <r>  0.0077  0.0011  0.0009  0.0005  0.0000  0.0000  0.0000  0.0000  0.0000 </r>
        <r>  0.0077  0.0011  0.0009  0.0005  0.0000  0.0000  0.0000  0.0000  0.0000 </r>
        <r>  0.0347  0.0065  0.0000  0.0022  0.1580  0.0337  0.0207  0.1011  0.0526 </r>
        <r>  0.0004  0.0287  0.0194  0.0857  0.0000  0.0000  0.0000  0.0000  0.0000 </r>
        <r>  0.0004  0.0287  0.0194  0.0857  0.0000  0.0000  0.0000  0.0000  0.0000 </r>
       </set>
       <set comment="band 9">
        <r>  0.0089  0.0006  0.0008  0.0016  0.0000  0.0000  0.0000  0.0000  0.0000 </r>
        <r>  0.0089  0.0006  0.0008  0.0016  0.0000  0.0000  0.0000  0.0000  0.0000 </r>
        <r>  0.0000  0.0051  0.0030  0.0152  0.0540  0.1271  0.0000  0.0424  0.1620 </r>
        <r>  0.0005  0.0342  0.0368  0.0659  0.0000  0.0000  0.0000  0.0000  0.0000 </r>
        <r>  0.0005  0.0342  0.0368  0.0659  0.0000  0.0000  0.0000  0.0000  0.0000 </r>
       </set>
       <set comment="band 10">
        <r>  0.0009  0.0021  0.0001  0.0027  0.0000  0.0000  0.0000  0.0000  0.0000 </r>
        <r>  0.0009  0.0021  0.0001  0.0027  0.0000  0.0000  0.0000  0.0000  0.0000 </r>
        <r>  0.0389  0.0046  0.0000  0.0015  0.0708  0.0117  0.2742  0.0352  0.0236 </r>
        <r>  0.0000  0.0781  0.0102  0.0416  0.0000  0.0000  0.0000  0.0000  0.0000 </r>
        <r>  0.0000  0.0781  0.0102  0.0416  0.0000  0.0000  0.0000  0.0000  0.0000 </r>
       </set>
       <set comment="band 11">
        <r>  0.0001  0.0085  0.0000  0.0075  0.0000  0.0000  0.0000  0.0000  0.0000 </r>
        <r>  0.0001  0.0085  0.0000  0.0075  0.0000  0.0000  0.0000  0.0000  0.0000 </r>
        <r>  0.0000  0.0000  0.0301  0.0000  0.0097  0.0397  0.0000  0.0132  0.0291 </r>
        <r>  0.0001  0.1174  0.0002  0.1030  0.0000  0.0000  0.0000  0.0000  0.0000 </r>
        <r>  0.0001  0.1174  0.0002  0.1030  0.0000  0.0000  0.0000  0.0000  0.0000 </r>
       </set>
       <set comment="band 12">
        <r>  0.0000  0.0012  0.0002  0.0007  0.0000  0.0000  0.0000  0.0000  0.0000 </r>
        <r>  0.0000  0.0012  0.0002  0.0007  0.0000  0.0000  0.0000  0.0000  0.0000 </r>
        <r>  0.0301  0.0005  0.0000  0.0002  0.0103  0.0056  0.6219  0.0169  0.0034 </r>
        <r>  0.0001  0.0516  0.0050  0.0313  0.0000  0.0000  0.0000  0.0000  0.0000 </r>
        <r>  0.0001  0.0516  0.0050  0.0313  0.0000  0.0000  0.0000  0.0000  0.0000 </r>
       </set>
       <set comment="band 13">
        <r>  0.0041  0.0017  0.0002  0.0007  0.0000  0.0000  0.0000  0.0000  0.0000 </r>
        <r>  0.0041  0.0017  0.0002  0.0007  0.0000  0.0000  0.0000  0.0000  0.0000 </r>
        <r>  0.0000  0.0047  0.0013  0.0142  0.0709  0.1134  0.0000  0.0378  0.2127 </r>
        <r>  0.0003  0.0398  0.1109  0.0162  0.0000  0.0000  0.0000  0.0000  0.0000 </r>
        <r>  0.0003  0.0398  0.1109  0.0162  0.0000  0.0000  0.0000  0.0000  0.0000 </r>
       </set>
       <set comment="band 14">
        <r>  0.0037  0.0008  0.0028  0.0016  0.0000  0.0000  0.0000  0.0000  0.0000 </r>
        <r>  0.0037  0.0008  0.0028  0.0016  0.0000  0.0000  0.0000  0.0000  0.0000 </r>
        <r>  0.0000  0.0083  0.0000  0.0028  0.0446  0.0435  0.0263  0.1305  0.0149 </r>
        <r>  0.0000  0.0053  0.2242  0.0018  0.0000  0.0000  0.0000  0.0000  0.0000 </r>
        <r>  0.0000  0.0053  0.2242  0.0018  0.0000  0.0000  0.0000  0.0000  0.0000 </r>
       </set>
       <set comment="band 15">
        <r>  0.0045  0.0005  0.0031  0.0003  0.0000  0.0000  0.0000  0.0000  0.0000 </r>
        <r>  0.0045  0.0005  0.0031  0.0003  0.0000  0.0000  0.0000  0.0000  0.0000 </r>
        <r>  0.0004  0.0060  0.0000  0.0020  0.2108  0.0029  0.0096  0.0086  0.0703 </r>
        <r>  0.0000  0.1049  0.0308  0.0957  0.0000  0.0000  0.0000  0.0000  0.0000 </r>
        <r>  0.0000  0.1050  0.0308  0.0957  0.0000  0.0000  0.0000  0.0000  0.0000 </r>
       </set>
       <set comment="band 16">
        <r>  0.0020  0.0002  0.0044  0.0004  0.0000  0.0000  0.0000  0.0000  0.0000 </r>
        <r>  0.0020  0.0002  0.0044  0.0004  0.0000  0.0000  0.0000  0.0000  0.0000 </r>
        <r>  0.0000  0.0000  0.0008  0.0001  0.0346  0.0130  0.0000  0.0043  0.1039 </r>
        <r>  0.0001  0.0703  0.1462  0.0705  0.0000  0.0000  0.0000  0.0000  0.0000 </r>
        <r>  0.0001  0.0703  0.1462  0.0705  0.0000  0.0000  0.0000  0.0000  0.0000 </r>
       </set>
       <set comment="band 17">
        <r>  0.0007  0.0003  0.0017  0.0009  0.0000  0.0000  0.0000  0.0000  0.0000 </r>
        <r>  0.0007  0.0003  0.0017  0.0009  0.0000  0.0000  0.0000  0.0000  0.0000 </r>
        <r>  0.0000  0.0001  0.0000  0.0003  0.0676  0.4191  0.0000  0.1398  0.2028 </r>
        <r>  0.0058  0.0142  0.0203  0.0121  0.0000  0.0000  0.0000  0.0000  0.0000 </r>
        <r>  0.0058  0.0142  0.0203  0.0121  0.0000  0.0000  0.0000  0.0000  0.0000 </r>
       </set>
       <set comment="band 18">
        <r>  0.0000  0.0007  0.0017  0.0007  0.0000  0.0000  0.0000  0.0000  0.0000 </r>
        <r>  0.0000  0.0007  0.0017  0.0007  0.0000  0.0000  0.0000  0.0000  0.0000 </r>
        <r>  0.0001  0.0002  0.0000  0.0001  0.2089  0.1388  0.0000  0.4162  0.0696 </r>
        <r>  0.0102  0.0082  0.0284  0.0073  0.0000  0.0000  0.0000  0.0000  0.0000 </r>
        <r>  0.0102  0.0082  0.0284  0.0073  0.0000  0.0000  0.0000  0.0000  0.0000 </r>
       </set>
       <set comment="band 19">
        <r>  0.0011  0.0093  0.0127  0.0245  0.0000  0.0000  0.0000  0.0000  0.0000 </r>
        <r>  0.0011  0.0093  0.0127  0.0245  0.0000  0.0000  0.0000  0.0000  0.0000 </r>
        <r>  0.0000  0.0071  0.0026  0.0212  0.0025  0.0021  0.0000  0.0007  0.0076 </r>
        <r>  0.0126  0.0565  0.0001  0.0350  0.0000  0.0000  0.0000  0.0000  0.0000 </r>
        <r>  0.0126  0.0565  0.0001  0.0350  0.0000  0.0000  0.0000  0.0000  0.0000 </r>
       </set>
       <set comment="band 20">
        <r>  0.0062  0.0063  0.0214  0.0062  0.0000  0.0000  0.0000  0.0000  0.0000 </r>
        <r>  0.0062  0.0063  0.0214  0.0062  0.0000  0.0000  0.0000  0.0000  0.0000 </r>
        <r>  0.2249  0.0234  0.0000  0.0078  0.0111  0.0002  0.0001  0.0006  0.0037 </r>
        <r>  0.0172  0.0301  0.0003  0.0713  0.0000  0.0000  0.0000  0.0000  0.0000 </r>
        <r>  0.0172  0.0301  0.0003  0.0713  0.0000  0.0000  0.0000  0.0000  0.0000 </r>
       </set>
       <set comment="band 21">
        <r>  0.0008  0.0228  0.0336  0.0076  0.0000  0.0000  0.0000  0.0000  0.0000 </r>
        <r>  0.0008  0.0228  0.0336  0.0076  0.0000  0.0000  0.0000  0.0000  0.0000 </r>
        <r>  0.0000  0.0221  0.0010  0.0663  0.0023  0.0008  0.0000  0.0003  0.0070 </r>
        <r>  0.0220  0.0186  0.0063  0.0534  0.0000  0.0000  0.0000  0.0000  0.0000 </r>
        <r>  0.0220  0.0186  0.0063  0.0534  0.0000  0.0000  0.0000  0.0000  0.0000 </r>
       </set>
       <set comment="band 22">
        <r>  0.0022  0.0026  0.0430  0.0031  0.0000  0.0000  0.0000  0.0000  0.0000 </r>
        <r>  0.0022  0.0026  0.0430  0.0031  0.0000  0.0000  0.0000  0.0000  0.0000 </r>
        <r>  0.1598  0.0450  0.0000  0.0150  0.0178  0.0010  0.0036  0.0029  0.0059 </r>
        <r>  0.0082  0.0574  0.0016  0.0256  0.0000  0.0000  0.0000  0.0000  0.0000 </r>
        <r>  0.0082  0.0574  0.0016  0.0256  0.0000  0.0000  0.0000  0.0000  0.0000 </r>
       </set>
       <set comment="band 23">
        <r>  0.0616  0.0184  0.0008  0.0277  0.0000  0.0000  0.0000  0.0000  0.0000 </r>
        <r>  0.0605  0.0198  0.0008  0.0284  0.0000  0.0000  0.0000  0.0000  0.0000 </r>
        <r>  0.0043  0.0110  0.0000  0.0038  0.0153  0.0052  0.0020  0.0156  0.0051 </r>
        <r>  0.0081  0.0273  0.0690  0.0362  0.0000  0.0000  0.0000  0.0000  0.0000 </r>
        <r>  0.0083  0.0263  0.0708  0.0348  0.0000  0.0000  0.0000  0.0000  0.0000 </r>
       </set>
       <set comment="band 24">
        <r>  0.0425  0.0578  0.0015  0.0313  0.0000  0.0000  0.0000  0.0000  0.0000 </r>
        <r>  0.0445  0.0562  0.0019  0.0313  0.0000  0.0000  0.0000  0.0000  0.0000 </r>
        <r>  0.0000  0.0044  0.0080  0.0130  0.0030  0.0042  0.0000  0.0014  0.0090 </r>
        <r>  0.0043  0.0356  0.0607  0.0348  0.0000  0.0000  0.0000  0.0000  0.0000 </r>
        <r>  0.0043  0.0368  0.0577  0.0366  0.0000  0.0000  0.0000  0.0000  0.0000 </r>
       </set>
       <set comment="band 25">
        <r>  0.0095  0.0183  0.0064  0.0125  0.0000  0.0000  0.0000  0.0000  0.0000 </r>
        <r>  0.0078  0.0140  0.0050  0.0077  0.0000  0.0000  0.0000  0.0000  0.0000 </r>
        <r>  0.0004  0.0022  0.3224  0.0026  0.0000  0.0000  0.0008  0.0000  0.0000 </r>
        <r>  0.0005  0.0141  0.0070  0.0092  0.0000  0.0000  0.0000  0.0000  0.0000 </r>
        <r>  0.0007  0.0152  0.0081  0.0117  0.0000  0.0000  0.0000  0.0000  0.0000 </r>
       </set>
      </set>
     </set>
    </set>
   </array>
  </projected>
 </calculation>
 <structure name="finalpos" >
  <crystal>
   <varray name="basis" >
    <v>       3.11617641      -0.00000000       0.00000000 </v>
    <v>      -1.55808771       2.69868772       0.00000000 </v>
    <v>       0.00000000       0.00000000       5.08427692 </v>
   </varray>
   <i name="volume">     42.75666915 </i>
   <varray name="rec_basis" >
    <v>       0.32090609       0.18527518       0.00000000 </v>
    <v>       0.00000000       0.37055047       0.00000000 </v>
    <v>       0.00000000       0.00000000       0.19668480 </v>
   </varray>
  </crystal>
  <varray name="positions" >
   <v>       0.33333300       0.66666700       0.35824069 </v>
   <v>       0.66666700       0.33333300       0.64175931 </v>
   <v>       0.00000000       0.00000000       0.00000000 </v>
   <v>       0.66666700       0.33333300       0.23518788 </v>
   <v>       0.33333300       0.66666700       0.76481212 </v>
  </varray>
 </structure>
</modeling>
