ITEM: TIMESTEP
300
ITEM: NUMBER OF ATOMS
2004
ITEM: BOX BOUNDS pp pp pp
3.6840193999999997e+01 6.4211560000000006e+01
4.1013691000000001e+01 6.8385058000000001e+01
2.9768094999999999e+01 5.7139462000000002e+01
ITEM: ATOMS id type x y z vx vy vz ix iy iz 
187 13 40.4995 41.975 31.6943 -0.00600064 0.000229343 0.00044653 0 0 1 
188 14 40.8842 41.4886 30.9651 -0.0109086 0.0110275 -0.00932952 0 0 1 
189 14 40.3217 42.8444 31.3355 0.0052647 0.0100252 0.0187796 0 0 1 
385 13 40.3134 44.705 37.1315 -0.0010584 -0.000926598 0.00173938 0 2 0 
386 14 40.4014 43.9507 36.5487 -0.0075101 -0.00258732 0.00291976 0 2 0 
387 14 40.9159 45.3567 36.7731 0.0269296 -0.0176323 0.0184021 0 2 0 
460 13 37.7521 44.4362 56.2 -0.00102765 -0.00491953 -0.00526079 0 1 2 
461 14 38.388 44.0966 56.8296 -0.0125879 0.0113108 0.0151284 0 1 2 
462 14 37.217 43.6776 55.9664 0.000517796 -0.00997291 0.00768602 0 1 2 
649 13 42.6066 44.9773 30.7618 -0.00738267 -0.00233516 -0.000774117 1 0 1 
650 14 43.2324 44.2864 30.9792 -0.0028078 0.000513023 -0.00487689 1 0 1 
651 14 43.0366 45.7865 31.0385 -0.0232821 -0.00340144 0.0270106 1 0 1 
679 13 37.6599 45.3352 36.2041 0.00306944 0.00299516 0.00318589 0 0 2 
680 14 38.0278 45.8569 35.4909 -0.0104351 0.00609043 -0.00152234 0 0 2 
751 13 42.4799 42.5785 34.3375 0.00660085 0.00926609 -0.000159786 0 1 0 
752 14 42.3062 41.7559 33.8799 0.0082411 0.0131767 -0.00773999 0 1 0 
753 14 41.7666 42.6559 34.9711 -1.71712e-05 0.00785712 -0.00749313 0 1 0 
863 14 63.9181 47.0735 34.2744 0.00526773 0.0194622 -0.0286127 -2 0 0 
967 13 44.0856 41.4684 31.1127 0.00224288 0.00261084 -0.00299951 0 1 0 
968 14 44.4004 42.2349 31.5919 0.00489961 -0.00120307 0.00133189 0 1 0 
997 13 39.3479 46.8162 34.3513 -0.00760274 0.000853344 -0.000210645 1 1 0 
998 14 40.2638 46.845 34.628 -0.00697749 0.00898276 -0.00322207 1 1 0 
999 14 39.3874 46.7516 33.3971 -0.010597 0.0274534 -0.00204793 1 1 0 
1274 14 43.0646 47.217 35.729 0.00266883 -0.00107016 0.00727733 0 1 0 
1627 13 38.4127 41.4781 33.7204 0.00141886 0.00500763 0.00362144 2 0 0 
1629 14 39.0902 41.6802 33.0752 -0.00667658 0.00412227 -0.00512444 2 0 0 
1792 13 40.0341 44.362 30.6945 -0.00208945 0.000900378 -0.000343733 0 0 1 
1793 14 40.9141 44.7327 30.6278 -0.0034135 0.00278816 -0.00751594 0 0 1 
1794 14 39.5186 45.0437 31.1256 -0.00298473 0.00482353 -0.00761936 0 0 1 
1806 14 42.5832 41.7544 56.9135 0.010355 -0.0258201 0.00950433 1 0 -1 
1996 13 40.0071 41.9321 35.8971 0.000974208 -0.000638994 -0.00168161 0 0 0 
1997 14 39.647 41.3022 36.5215 0.00385496 -0.00244217 -0.00185939 0 0 0 
1998 14 39.6007 41.7011 35.0618 0.0204098 -0.0174769 -0.00661546 0 0 0 
196 13 44.7394 47.4156 35.1944 -0.00355721 -0.000133094 -0.000339139 -2 1 1 
197 14 45.5611 47.272 34.7248 -0.00134144 -0.0172452 0.00881387 -2 1 1 
198 14 44.7401 48.3508 35.3987 0.0160083 -0.000993241 0.00381926 -2 1 1 
421 13 44.619 43.4117 32.7753 0.00123252 -0.00150002 -0.0010806 -1 -1 1 
422 14 43.9 43.3884 33.4067 0.0172387 0.00410812 0.0173937 -1 -1 1 
423 14 45.1021 44.2094 32.9909 -0.000680375 0.00712089 -0.0285453 -1 -1 1 
553 13 46.4729 42.0051 56.9951 -0.00418155 0.00660353 0.00314987 -1 0 0 
554 14 45.6174 41.654 29.871 -0.00773902 -0.00482458 -0.0253745 -1 0 1 
555 14 47.0774 41.642 30.2709 -0.0148672 -0.0153387 0.000696189 -1 0 1 
604 13 49.331 42.9017 33.8498 0.00139212 0.00954237 -0.000399081 -1 -1 0 
605 14 49.0162 42.7037 34.7318 -0.0108986 -0.0109399 -0.009322 -1 -1 0 
606 14 49.434 43.8533 33.8396 -0.0282664 0.0129039 0.0133625 -1 -1 0 
694 13 49.2717 45.789 34.2573 0.00416131 -0.0041517 -0.00512371 0 0 0 
695 14 48.6896 46.4011 34.7076 0.00566591 0.00180582 -0.0113268 0 0 0 
696 14 49.9941 45.6501 34.8698 -0.0076163 -0.0174318 0.00566379 0 0 0 
841 13 45.9131 45.9066 32.5924 -0.00258553 -0.00481018 0.00649873 1 0 0 
842 14 46.3559 45.3739 31.9318 -0.00582509 0.0223288 -0.0172619 1 0 0 
843 14 46.6217 46.3589 33.0502 -0.00325231 0.010054 -0.00714122 1 0 0 
904 13 50.1453 46.094 36.9535 0.000577671 0.00221594 0.00217987 0 1 -1 
1170 14 49.9571 41.8338 30.9911 -0.008845 0.0257575 -0.00209367 0 -1 0 
1228 13 47.4156 44.7447 30.2906 -0.00525545 -7.52981e-05 -0.00603062 0 0 1 
1229 14 46.9765 43.9077 30.1394 -0.000546109 -0.00185166 -0.00985473 0 0 1 
1387 13 48.6627 67.7881 30.6128 0.00267856 0.00328809 -0.00107265 2 0 0 
1984 13 49.9696 45.5652 31.6747 -0.00137374 0.00164406 0.0013644 1 2 1 
1985 14 49.6704 45.7121 32.572 -0.0145503 -0.00163591 -0.00242417 1 2 1 
1986 14 49.1666 45.4167 31.1752 0.00703416 -0.0129199 -0.00791449 1 2 1 
152 14 56.6109 46.6431 30.5256 0.00567007 0.00759439 0.00235301 0 1 2 
210 14 53.8437 47.7178 36.1692 0.00583921 -0.00627307 0.000540129 -1 0 1 
337 13 51.1147 48.5203 35.7439 -0.00136564 0.00033179 -0.00521203 0 0 1 
338 14 50.6906 47.6903 35.9615 -0.00016184 0.00486013 0.0141578 0 0 1 
667 13 54.4943 43.4243 35.501 0.00193455 -0.000271001 -0.000484338 0 0 -1 
668 14 55.3787 43.4389 35.8669 -0.000480515 0.00020273 0.00526939 0 0 -1 
669 14 54.5411 43.999 34.737 0.0066346 -0.000350073 -0.000240584 0 0 -1 
905 14 50.1921 45.1444 37.064 -0.00517804 0.000407689 -0.0108917 0 1 -1 
1036 13 56.8917 46.2158 35.1113 0.00100861 0.00434429 -0.000511715 -1 0 1 
1037 14 56.301 46.61 35.753 0.00258423 -0.0044008 0.00639097 -1 0 1 
1038 14 56.3574 46.1147 34.3236 -0.000270028 0.0172418 -0.00130515 -1 0 1 
1168 13 50.6431 42.1987 31.5502 0.000101375 0.00121461 0.00316173 0 -1 0 
1169 14 50.1956 42.417 32.3677 0.00779204 -0.0101183 0.0104623 0 -1 0 
1253 14 56.066 42.2096 37.5989 0.00825504 -0.000611788 -0.0192565 -1 2 1 
1309 13 54.2313 67.9711 35.3476 -0.000236802 0.00214097 -0.00135932 0 0 0 
1311 14 53.899 41.4822 35.1832 -0.0260896 -0.00267167 0.0252756 0 1 0 
1480 13 53.1199 43.4473 30.9652 0.0006175 -0.00375361 0.00412164 0 1 0 
1481 14 52.2166 43.1843 31.1417 -0.00552813 0.0106755 -0.0053683 0 1 0 
1482 14 53.5436 42.6506 30.6458 -0.00567429 -0.0134527 0.0198948 0 1 0 
1648 13 54.3725 45.2957 33.4773 0.00568214 0.00976561 0.00174255 0 0 1 
1649 14 53.8295 46.0375 33.7437 -0.00260632 0.00501806 -0.00187658 0 0 1 
1650 14 53.8988 44.9025 32.7443 -0.00150765 -0.012554 0.0182654 0 0 1 
1756 13 51.7209 43.8713 35.3405 -0.00288781 0.00460453 0.00188311 0 1 1 
1757 14 51.7135 43.2936 34.5773 -0.0012529 0.00595922 0.000828727 0 1 1 
1758 14 52.6433 44.0957 35.4627 -0.00112864 -0.0108461 0.0158925 0 1 1 
1813 13 52.5665 46.1167 30.8868 -0.00399092 -0.000370219 0.00432171 1 0 1 
1814 14 52.9685 45.2498 30.9425 0.00437082 0.00261639 -0.00863309 1 0 1 
1815 14 51.6327 45.9575 31.0239 -0.0021444 -0.0112202 0.00449616 1 0 1 
1817 14 56.9981 44.5808 36.0863 0.0129703 -0.00741871 0.00665711 0 0 0 
1909 13 56.5815 43.1073 30.5292 0.00565438 -0.00510222 -0.00417422 0 0 0 
1910 14 56.3657 42.9888 31.4542 0.0141257 -0.00309957 -0.001985 0 0 0 
1911 14 56.9004 44.0079 30.4706 -0.0165934 0.00226804 -0.0130388 0 0 0 
103 13 61.2843 48.0151 35.7358 0.00261587 0.000295839 -0.00160491 -1 -1 1 
104 14 61.6272 48.9084 35.7118 0.00331955 -0.000211224 -0.0115028 -1 -1 1 
105 14 60.357 48.108 35.5176 0.00365855 -0.00186906 -0.00699335 -1 -1 1 
154 13 57.4746 46.1991 32.0268 0.00336457 0.00756991 -0.0010404 -1 0 1 
155 14 58.375 46.5144 32.1045 0.00158564 0.0141634 -0.00677395 -1 0 1 
156 14 57.4624 45.3824 32.5259 0.0137451 0.00500642 -0.00496159 -1 0 1 
207 14 61.9694 41.6697 36.5171 -0.00492729 -0.00339149 0.00629543 0 0 0 
241 13 62.0183 45.4855 36.1358 0.00530474 0.00537729 -0.00200061 -1 1 1 
242 14 61.6613 46.3735 36.1199 -0.00704698 0.000969111 0.0230983 -1 1 1 
243 14 62.8536 45.5708 36.5954 -0.00388229 0.001192 0.015562 -1 1 1 
247 13 59.8059 42.6521 31.3187 0.00377553 0.00128609 -0.000714957 -1 1 -1 
248 14 60.2407 42.5765 30.4694 0.000311398 0.00304643 -0.00263881 -1 1 -1 
249 14 60.4941 42.4679 31.9579 0.00480356 -0.00658121 -0.00411617 -1 1 -1 
323 14 61.9233 68.3071 30.8269 0.0126048 0.00986397 -0.00553367 0 -1 2 
471 14 62.0323 46.3514 56.5468 0.0037704 -0.00347064 -0.00682246 -1 -1 0 
643 13 60.0621 46.8288 32.7592 0.00658439 0.000947692 0.00123456 -1 0 -1 
644 14 60.7764 46.2254 32.964 0.00111669 -0.00181618 0.0121705 -1 0 -1 
645 14 60.1646 47.5439 33.3872 -0.000443696 0.000469977 0.0028714 -1 0 -1 
943 13 63.3649 42.6106 33.5328 -0.00983726 -0.00719457 -0.000613716 -1 1 0 
944 14 63.0215 41.8579 33.0514 -0.0121035 -0.00557988 -0.00151208 -1 1 0 
945 14 36.904 42.3813 33.719 -0.00531432 -0.00235733 -0.0167786 0 1 0 
1003 13 58.749 48.2707 34.6903 0.000593223 -0.00541696 -0.00325279 0 0 1 
1004 14 58.2926 47.43 34.726 -0.00263041 -0.00277906 0.0164417 0 0 1 
1005 14 58.0677 48.921 34.8611 0.00327866 0.00114319 -0.0175207 0 0 1 
1126 13 62.0694 45.1074 33.3234 0.000146071 0.00310518 2.24623e-05 0 0 0 
1127 14 62.5442 44.2833 33.2154 0.00912234 0.00894172 -0.00497089 0 0 0 
1128 14 61.9001 45.1654 34.2637 -0.0115557 -0.0105997 -0.00119822 0 0 0 
1204 13 58.0378 43.7127 33.0501 0.000766132 -0.00205706 -0.00486797 0 -1 0 
1205 14 58.4739 43.8301 33.894 -0.0173762 -0.00736953 0.00527541 0 -1 0 
1206 14 58.7143 43.3485 32.4791 0.00893613 -0.0124853 0.0113978 0 -1 0 
1690 13 59.5922 43.8424 35.523 -0.00256788 0.00944388 0.0073086 -1 1 1 
1691 14 60.2485 44.4322 35.8939 0.0136207 -0.00738902 0.00557141 -1 1 1 
1692 14 59.6168 43.0702 36.0881 -0.0148865 0.00531709 0.00221829 -1 1 1 
1767 14 58.4772 67.9552 35.31 -0.00481382 -0.0162101 0.0076301 0 -1 1 
1948 13 63.2738 43.015 36.246 0.00282642 5.67096e-05 0.00230547 -1 0 -1 
1949 14 62.6936 43.73 35.9846 -0.00417152 -0.00550652 0.00259133 -1 0 -1 
1950 14 64.0683 43.1495 35.7293 -0.00180824 0.00298896 -0.00404343 -1 0 -1 
23 11 42.6073 54.2037 35.7094 0.0153624 0.0120859 -0.0172123 0 0 0 
25 11 41.718 53.928 33.464 -0.00951228 -0.0154351 0.0166875 0 0 0 
163 13 43.6723 47.3761 31.7775 0.00328389 -0.000726013 7.22495e-05 -1 0 2 
164 14 43.1324 47.5457 32.5495 0.00515159 -0.0024829 0.0017803 -1 0 2 
355 13 37.5474 52.3382 32.7608 0.00150922 0.00361517 -0.00322434 0 -1 0 
356 14 37.0151 51.5652 32.5731 -0.0125213 0.00673631 0.0235942 0 -1 0 
357 14 38.2153 52.342 32.0751 -0.00503493 -0.0261189 -0.00977099 0 -1 0 
400 13 41.3286 50.8561 35.405 -0.000912511 0.000769942 -0.000280184 1 1 1 
401 14 40.5257 50.4405 35.7192 -0.0121669 0.0155593 -0.0094869 1 1 1 
402 14 41.8894 50.9104 36.1788 -0.0107793 -0.00483138 0.00727881 1 1 1 
559 13 39.5827 47.1079 31.567 -0.00139143 0.00573295 -0.00132394 -1 0 0 
560 14 39.3749 47.3431 30.6627 -0.000950846 -0.00649395 -0.00461159 -1 0 0 
561 14 40.223 47.7632 31.8443 0.0149662 -0.00357121 -0.0171408 -1 0 0 
582 14 42.831 53.849 30.8177 -0.00319035 -0.00434666 0.00665297 -1 0 0 
700 13 37.6416 49.5485 30.6528 -0.00317207 -0.000449375 -0.00878405 2 -1 0 
701 14 37.6353 48.7192 30.1749 -0.0164192 0.0124605 -0.0311229 2 -1 0 
702 14 37.8856 50.2016 29.997 0.00222321 0.0140186 0.00761299 2 -1 0 
769 13 63.4893 49.7156 32.8093 -0.00742495 -0.00541522 -0.00394523 -1 1 0 
770 14 63.5385 48.9249 33.3464 -0.0173073 -0.00998351 -0.00957776 -1 1 0 
771 14 63.9888 49.5018 32.0212 0.0194583 0.00660564 0.00997884 -1 1 0 
862 13 36.8742 47.8397 34.7455 -0.00106831 0.0020877 0.00421223 -1 0 0 
864 14 37.819 47.6986 34.8057 0.000677104 0.00986059 -0.00600019 -1 0 0 
1414 13 41.9442 48.7564 33.3396 -0.00149392 -0.00460795 -0.00448952 1 1 0 
1415 14 41.5333 49.2158 34.0719 0.00201233 -0.00711413 -0.000955715 1 1 0 
1416 14 42.0739 49.4326 32.6745 -0.00399882 -0.00217071 -0.00251081 1 1 0 
1546 13 41.7734 50.4756 31.2922 -0.00446363 0.000653894 0.00199169 0 0 1 
1547 14 41.1271 51.1481 31.5071 0.00072184 0.00684005 -0.00176639 0 0 1 
1548 14 41.8019 50.4672 30.3354 -0.00126042 -0.00182812 0.00212 0 0 1 
1606 13 37.4683 51.6362 35.4253 -0.0026835 0.00298166 0.00360444 2 0 -1 
1607 14 37.6745 52.4866 35.8133 -0.000522875 0.00141732 0.00589021 2 0 -1 
1608 14 37.5877 51.7663 34.4845 0.00305982 0.00370298 0.00442472 2 0 -1 
1918 13 39.5917 52.5189 30.7807 -0.00273681 0.00484643 -0.00204794 2 1 0 
1919 14 38.9455 52.9276 30.2048 -0.00840833 0.004874 0.00429738 2 1 0 
1920 14 40.2008 53.2248 30.9972 0.00395531 0.00287168 -0.014483 2 1 0 
1977 14 64.1659 53.9169 33.1377 -0.00752867 -0.00840958 0.0131074 -1 0 0 
112 13 43.7029 51.9175 33.5388 -0.0073526 -0.000173259 -0.000277559 0 -1 1 
113 14 43.4954 52.4598 32.7778 0.000506781 -0.00921483 -0.0088306 0 -1 1 
114 14 42.8574 51.5719 33.8249 -0.00909278 -0.00470653 -0.0108794 0 -1 1 
165 14 44.4215 46.8832 32.1121 0.0133907 0.0146687 -6.26009e-05 -1 0 2 
221 14 47.1846 48.9488 37.8204 -0.0131488 0.0209018 0.0113399 0 0 1 
415 13 47.1674 49.7878 32.457 0.000624591 0.00211607 0.00457775 0 0 0 
416 14 47.5601 50.5354 32.0063 -0.0357042 0.0174273 -0.00180346 0 0 0 
417 14 46.5245 49.4442 31.8366 0.00489354 -0.0238766 0.0143406 0 0 0 
580 13 43.5119 53.8515 31.4904 0.00516173 0.00255279 -0.00183512 -1 0 0 
581 14 44.267 54.259 31.0661 -0.00381003 0.00898443 -0.0116809 -1 0 0 
749 14 51.2711 49.2178 31.2374 -0.0118799 0.00266276 -0.00519196 0 -1 0 
750 14 50.368 49.9551 32.2032 0.00461734 0.00121791 0.0113485 0 -1 0 
801 14 47.3071 52.2134 35.6915 -0.0199061 0.0149691 0.0256395 0 -1 1 
1041 14 47.3606 54.6817 34.2481 0.00710397 -0.00939837 0.00500495 -1 -1 2 
1153 13 45.3218 49.4267 30.4071 0.00634557 0.00409045 0.000847111 0 2 1 
1154 14 44.5233 49.0134 30.7356 -0.00982386 0.0288419 -0.00727357 0 2 1 
1327 13 48.453 52.1006 31.6158 0.00364133 8.36138e-05 -0.00175755 0 -1 0 
1328 14 49.1677 52.4033 32.176 -0.000661127 0.0137909 -0.0037801 0 -1 0 
1329 14 48.6887 52.4064 30.7399 -0.00365557 0.00275474 -0.00277855 0 -1 0 
1461 14 50.991 53.4539 33.7864 -0.0131304 -0.00667849 0.00965002 0 1 0 
1462 13 45.3945 55.214 36.1908 -0.0011097 0.00318011 0.00163665 1 0 2 
1463 14 46.2974 55.528 36.1419 0.00171204 -0.00628816 -0.00642105 1 0 2 
1591 13 49.7269 53.1627 56.8516 -0.00192081 -0.000922654 0.00377415 -1 0 0 
1592 14 49.6359 53.8056 56.1484 -0.0103989 0.000638878 0.00625323 -1 0 0 
1819 13 47.358 47.7427 34.6466 0.00138964 0.00108545 0.00595231 0 0 1 
1820 14 47.2937 48.3728 33.929 -0.0208619 -0.00385226 0.00346235 0 0 1 
1821 14 47.056 48.2243 35.4167 0.0125374 0.00241949 0.00942092 0 0 1 
1828 13 46.5462 52.9307 33.7531 -0.00439749 -0.000859747 0.00204308 2 0 0 
1829 14 46.7563 52.6537 32.8612 0.0164264 0.00441727 0.00536878 2 0 0 
1830 14 45.5901 52.9734 33.7721 -0.00490615 -0.00370105 -0.0192547 2 0 0 
1951 13 45.5256 50.0452 34.7098 0.000378422 -0.00301411 -0.00573542 1 -1 1 
1952 14 46.0397 50.193 33.916 0.00311608 0.012671 -0.001056 1 -1 1 
1953 14 44.7783 50.6374 34.6254 0.00340244 0.00248173 0.00589772 1 -1 1 
199 13 53.2136 50.9224 35.4853 0.00376375 -0.00339681 0.00379822 -1 1 0 
200 14 52.3836 50.4474 35.4453 -0.000614045 0.00449169 0.000580126 -1 1 0 
201 14 52.9664 51.819 35.7117 0.0116978 -0.00177643 0.0060445 -1 1 0 
208 13 54.7132 48.1169 36.1986 0.00337254 -0.000447369 -0.00504062 -1 0 1 
209 14 54.6792 48.8148 35.5445 -0.00864514 0.0057543 0.002193 -1 0 1 
339 14 51.485 48.3794 34.8725 -0.000815359 -0.0195454 -0.00171131 0 0 1 
397 13 53.4598 51.0899 32.6479 0.00580954 -0.000608622 -0.00141999 -1 0 1 
398 14 52.6229 50.6772 32.4345 -0.00287905 0.0156764 0.00109302 -1 0 1 
399 14 53.5806 50.9186 33.5818 0.00923983 -0.00990499 -0.00352317 -1 0 1 
481 13 53.0542 47.979 33.4809 0.00375512 0.00203117 0.00095866 0 0 1 
482 14 52.3237 48.3962 33.0242 0.00663894 -0.0136552 -0.0177818 0 0 1 
483 14 53.8362 48.3492 33.0713 0.00641883 0.0100976 0.0132053 0 0 1 
498 14 57.0738 54.8037 29.9959 -0.00604491 0.0034726 0.000326085 0 -1 0 
691 13 51.7934 53.6938 35.3415 0.00234197 0.00203382 0.00575297 -1 -1 1 
693 14 52.2004 54.5491 35.4797 0.0113367 0.000535503 -0.0111752 -1 -1 1 
712 13 56.4138 49.6311 34.4859 -0.00233788 -0.00613474 0.000905059 -1 0 0 
713 14 56.833 50.4082 34.1162 0.00414511 -0.00716005 0.00615049 -1 0 0 
714 14 55.9684 49.2227 33.7437 -0.00907701 0.00475443 -0.00111013 -1 0 0 
748 13 51.2134 49.5097 32.1472 0.000752133 -0.00444661 -0.0021043 0 -1 0 
877 13 58.1684 51.5781 33.1048 -0.000378075 -0.00210403 -0.0100955 -1 -1 0 
878 14 58.2459 52.4077 32.6337 0.00223439 0.00220593 -0.00205603 -1 -1 0 
964 13 57.4079 54.31 31.6778 0.000146995 -0.0018623 0.00436248 0 -1 0 
965 14 57.9672 54.606 32.396 -0.00941834 0.0371405 -0.00423907 0 -1 0 
966 14 56.5162 54.4123 32.0102 -0.00328927 -0.0159879 -0.000540595 0 -1 0 
970 13 53.4321 52.1358 29.8958 5.80236e-05 -0.00532482 -0.00277842 -2 1 0 
971 14 53.3662 51.6089 30.6923 -0.0138672 -2.90183e-05 -0.00037993 -2 1 0 
972 14 53.3044 53.0367 30.1929 0.00963965 -0.00191028 -0.00890082 -2 1 0 
1013 14 56.0233 52.9843 36.1599 -0.00221105 -0.00325697 0.0118025 0 -1 0 
1188 14 52.5006 54.0449 32.0547 -0.00738509 0.00567223 -0.00100407 0 -1 0 
1459 13 50.4913 53.4931 32.9709 -0.0010716 -0.000587087 0.00257215 0 1 0 
1561 13 55.6213 48.537 32.1156 0.00109464 0.00223199 -0.00185415 1 -2 2 
1562 14 55.9409 47.6398 32.0191 -0.00715121 -0.00161665 0.00643209 1 -2 2 
1563 14 55.717 48.9208 31.244 0.0236938 -0.000418024 -0.000460886 1 -2 2 
1593 14 49.7976 53.6875 30.2776 -0.0192294 -0.00320405 0.00692783 -1 0 1 
1840 13 56.9162 49.6892 29.8687 0.00187404 0.00515106 0.00149431 0 1 1 
1841 14 57.8409 49.6737 30.1156 -0.000593479 0.0148923 0.0112544 0 1 1 
1929 14 57.1785 54.5947 36.9306 0.00347804 0.00499962 0.00517165 0 -1 0 
1990 13 56.0297 50.9024 36.8109 0.000398486 -0.000599469 -0.00158134 1 0 1 
1991 14 56.1055 50.6445 35.8922 -0.0168126 -0.00819213 -0.000874518 1 0 1 
1992 14 55.1045 50.7747 37.0205 -0.000997133 0.0266184 0.00900882 1 0 1 
175 13 61.4369 53.2793 33.0866 -0.0087937 0.00444353 0.00130189 -1 -1 0 
176 14 61.1223 53.0083 33.949 0.00219399 0.0139509 0.00834391 -1 -1 0 
177 14 62.1937 53.8355 33.2711 -0.000224322 -0.00175033 -0.0147679 -1 -1 0 
262 13 60.1193 52.3315 35.2582 0.00142351 0.000908279 0.00326257 -1 1 -1 
263 14 60.3409 52.4854 36.1766 0.000215276 -0.0168688 0.00657003 -1 1 -1 
264 14 59.291 51.8526 35.2882 -0.00704642 0.0149544 -0.0075741 -1 1 -1 
781 13 59.4038 48.889 30.9154 0.00200583 -0.000581548 0.0012909 0 0 0 
782 14 59.302 48.069 31.3986 0.013483 -0.00899083 -0.010607 0 0 0 
783 14 59.805 49.4895 31.5436 0.00541686 -0.0077163 0.00596589 0 0 0 
879 14 58.9423 51.0798 32.8423 -0.00193022 -0.00202565 -0.0148846 -1 -1 0 
985 13 60.9478 50.549 32.4291 0.00076003 -0.00480202 -0.00636201 0 0 0 
986 14 61.1358 51.4848 32.5006 -0.00233602 -0.0047985 0.0016946 0 0 0 
987 14 61.758 50.1197 32.704 -0.000778561 -0.00452615 -0.00131749 0 0 0 
1198 13 62.7423 50.5282 36.5026 -0.00105129 -0.000596416 -0.00108973 0 0 -1 
1199 14 63.5132 50.8326 36.0237 -0.00490084 0.00814906 -0.00171415 0 0 -1 
1200 14 62.0389 51.1137 36.2221 -2.31907e-05 0.0139839 0.0268364 0 0 -1 
1831 13 60.7201 53.6463 30.327 0.00435558 0.00464335 0.00339814 0 1 1 
1832 14 60.7474 53.7609 31.277 0.00137597 0.0144801 0.00232714 0 1 1 
1833 14 61.4332 53.0363 30.1383 -0.0170057 -0.0243394 0.0157439 0 1 1 
1927 13 58.1256 54.4937 37.0253 0.0044537 0.00395668 -0.00547705 0 -1 0 
1928 14 58.2348 54.0103 37.8441 0.0129996 0.00205053 -0.00777836 0 -1 0 
12 8 41.196 55.7485 36.2666 0.000910864 0.000840617 0.00357 0 0 0 
13 8 41.791 54.827 35.3753 -0.000153227 0.00106776 0.00018234 0 0 0 
14 8 40.0789 56.457 35.8684 -0.000891429 -0.00472161 0.00465539 0 0 0 
15 8 41.3411 54.7148 34.1007 -0.00233002 0.00137783 0.000233932 0 0 0 
16 8 39.6721 56.3987 34.5124 0.00124288 -0.00404826 7.19307e-05 0 0 0 
17 8 40.2428 55.4545 33.662 0.0033118 0.00268442 0.00325224 0 0 0 
18 9 39.6396 55.0222 32.4515 0.000335171 -0.00401984 -0.00401672 0 0 0 
19 10 43.8218 56.7428 36.4385 -0.0115893 -0.0100739 0.00104118 0 0 0 
24 11 39.5512 56.9976 36.6402 0.00784208 0.0265701 -0.0117146 0 0 0 
26 11 38.7786 56.9001 34.1709 0.00262919 0.00479772 0.00960939 0 0 0 
27 10 38.9052 55.6039 32.242 0.000483212 -0.000909554 0.00409713 0 0 0 
286 13 40.6382 61.0041 35.5924 0.00201576 0.00438507 0.000350159 0 -1 1 
287 14 41.349 61.5617 35.9087 0.0130872 -0.00574985 -0.00670952 0 -1 1 
288 14 41.0281 60.5004 34.8779 -0.0056716 -0.0184131 0.0122716 0 -1 1 
577 13 42.3551 56.7215 29.9191 -0.000697491 -0.00302304 0.00524867 0 0 0 
578 14 41.7105 56.0357 30.0937 0.00791335 -0.007455 0.0196273 0 0 0 
622 13 37.3778 56.4813 31.4528 0.000110949 -0.00287782 0.00607572 1 1 0 
623 14 37.4757 57.3993 31.7058 -0.00515814 -0.00176709 0.00400795 1 1 0 
624 14 37.0253 56.5138 30.5635 -0.0201412 -0.00717135 0.0140455 1 1 0 
818 14 64.0584 54.708 35.2587 -0.00227002 -0.0081296 -0.00144964 -1 -1 -1 
973 13 37.9852 61.6431 36.5312 -0.0011154 0.00443997 -0.00378457 1 0 0 
974 14 38.8261 61.6841 36.0758 -0.00420527 -0.00166842 -0.0100097 1 0 0 
975 14 38.1713 61.9758 37.4093 0.00858821 -0.000443753 -0.00397959 1 0 0 
1069 13 38.7336 60.9176 57.1289 -0.00169981 0.00335563 0.00392272 2 0 -1 
1070 14 39.2994 60.173 29.962 0.0140029 0.0138 -0.00158575 2 0 0 
1071 14 38.5117 61.2916 30.6103 0.0107572 0.00747198 0.00539276 2 0 0 
1342 13 41.5675 59.5021 33.5369 0.00419023 -0.000906275 0.000918373 0 -1 1 
1343 14 41.3707 59.4382 32.6023 0.0203616 0.00738037 -0.00304208 0 -1 1 
1344 14 41.3382 58.6424 33.8897 0.00440729 -0.00619241 -0.0118311 0 -1 1 
1402 13 37.2127 58.879 32.6301 0.00505062 -0.00244836 -0.00535793 1 -1 2 
1403 14 37.5613 59.7335 32.376 -0.00442987 0.00294793 -5.65589e-05 1 -1 2 
1558 13 41.1572 59.1041 30.8133 0.00273712 0.000245313 -0.00447366 0 -1 0 
1559 14 41.7442 59.6854 30.3299 0.0044851 -0.00196518 -0.00499816 0 -1 0 
1560 14 41.5152 58.2281 30.6698 -0.000119323 -0.000992233 -0.00398208 0 -1 0 
1612 13 43.155 59.7532 56.3824 0.000389757 0.00160611 -0.00350266 1 0 -1 
1652 14 43.3475 60.4108 32.9656 -0.00504756 -0.0106423 -0.0149203 1 1 0 
1653 14 42.9197 61.5321 32.0428 -0.00362813 0.00156081 -0.000711735 1 1 0 
1849 13 38.1766 61.5758 32.5177 -8.9182e-06 0.00171453 -0.00899242 0 -2 -1 
1851 14 39.0796 61.7595 32.7766 0.00115668 0.0141363 -0.0219655 0 -2 -1 
2 2 44.8249 58.686 35.4188 0.00941248 -0.000660166 -0.00590276 0 0 0 
4 4 44.3079 58.1085 34.6229 -0.0328736 0.00735318 0.015439 0 0 0 
5 4 45.8201 58.2668 35.68 0.0059509 -0.00955059 -0.0069701 0 0 0 
6 4 44.8709 59.7373 35.0626 -0.00025483 0.000461167 -0.00410316 0 0 0 
190 13 47.1732 56.8197 31.1912 -0.000874696 -0.00536996 -0.00442814 0 1 0 
191 14 46.5368 56.1252 31.361 0.000741039 -0.0023667 0.0146299 0 1 0 
192 14 46.733 57.6223 31.4711 0.00995431 -0.00289256 0.00553959 0 1 0 
193 13 44.3323 57.7793 31.5167 -0.00165171 0.00367674 0.00435387 -1 0 0 
194 14 44.7302 58.4635 30.9784 -0.0059223 0.013134 0.0132746 -1 0 0 
195 14 43.6092 57.4461 30.9855 0.0272921 -0.0235129 -0.0178942 -1 0 0 
218 14 47.3049 61.3703 35.4765 -0.0220615 -0.000355455 0.015344 1 0 1 
343 13 45.9761 59.8092 30.7017 -0.00219358 -0.00611749 -0.00471855 -2 -1 1 
344 14 46.501 59.794 31.5019 0.00383561 -0.0121266 -0.00879578 -2 -1 1 
345 14 45.2963 60.4609 30.8729 -0.00189682 -0.00863595 0.00593842 -2 -1 1 
613 13 49.3873 55.7304 32.1382 -0.00575852 0.00321785 -0.000842243 0 -2 -2 
614 14 48.4866 55.942 31.8929 -0.00405863 0.00851294 -0.00245499 0 -2 -2 
615 14 49.9103 56.4412 31.7675 -0.00380931 0.0137722 0.0221172 0 -2 -2 
655 13 48.9579 59.8586 35.6859 -0.00346392 -0.000448991 -0.00115601 0 0 0 
656 14 48.9552 58.9144 35.5287 0.0115371 0.00152105 -0.013175 0 0 0 
688 13 48.0734 59.5981 32.6868 -0.00142489 -0.00207546 -0.000530971 0 1 1 
689 14 49.015 59.5475 32.5224 0.000147481 0.00672646 0.00563838 0 1 1 
690 14 48.0008 60.0399 33.5328 -0.0117854 0.0178486 -0.0117709 0 1 1 
955 13 50.7561 57.8187 31.0884 -0.00366016 -0.00107358 -0.00198244 0 1 0 
957 14 50.8576 58.4236 31.8232 0.0030003 0.0189882 -0.019536 0 1 0 
1039 13 47.7915 55.4566 34.609 0.00458074 -0.00484122 -0.00184901 -1 -1 2 
1040 14 48.3834 55.747 33.9151 -0.0112131 0.00273626 -0.012118 -1 -1 2 
1231 13 44.4049 55.8322 33.6259 0.00624298 0.00311008 -0.00377974 0 -1 0 
1232 14 44.4276 56.5932 33.0458 0.00942327 -0.0008807 -0.00890613 0 -1 0 
1233 14 44.214 55.0945 33.0467 -0.000210358 0.00051999 0.00170302 0 -1 0 
1391 14 48.9274 56.3987 35.6094 -0.0167067 0.0164137 -0.00724566 0 0 1 
1460 14 50.1694 54.3936 32.9297 0.000893151 0.000175166 0.00374335 0 1 0 
1464 14 45.0607 55.3032 35.2981 -0.00929111 0.0101652 0.00540597 1 0 2 
1651 13 43.6349 60.9172 32.2059 0.000711909 0.00646388 -0.00125612 1 1 0 
1878 14 45.3011 63.1555 32.758 0.00175107 -0.0195881 0.000303812 1 1 -1 
256 13 53.9363 58.0709 30.5165 0.00433063 -0.00212414 0.000347129 -1 -1 0 
257 14 53.6122 58.9232 30.2251 0.0148221 0.000619892 -0.00339944 -1 -1 0 
258 14 53.8481 57.5055 57.1205 -0.00441579 -0.00493102 0.00339638 -1 -1 -1 
393 14 53.7706 55.3391 55.9979 -0.0194607 0.0202547 0.0100595 -1 0 0 
403 13 53.5891 57.5181 34.6952 0.00193039 0.00653265 0.00251116 0 0 1 
404 14 52.8563 58.1295 34.6209 0.00023197 0.00347654 -0.00591884 0 0 1 
405 14 53.6413 57.3185 35.6299 0.00373031 0.0210778 0.00550469 0 0 1 
463 13 50.8759 59.8608 33.0468 0.00314999 -0.00306131 0.0043682 0 0 0 
464 14 51.3961 60.0777 33.8205 -0.00186397 0.00339898 0.00595207 0 0 0 
465 14 50.5672 60.706 32.7204 0.0118397 -0.00525587 -0.00929134 0 0 0 
493 13 57.8086 59.9151 33.7655 1.80041e-05 -0.00937032 -0.00489975 -2 1 1 
495 14 57.6564 59.0325 33.4277 0.00796611 -0.00981416 -0.0073459 -2 1 1 
956 14 51.619 57.7967 30.6747 -0.00996111 -0.0052437 -0.0149029 0 1 0 
988 13 52.6752 58.7365 37.0221 -0.00105002 0.00255986 0.0062793 -1 -2 -1 
989 14 52.4109 57.8242 37.1405 -0.0179124 0.00741597 0.00591032 -1 -2 -1 
990 14 53.092 58.9749 37.8502 -0.00039858 -0.00419483 0.00789679 -1 -2 -1 
1012 13 55.4313 53.7178 36.3261 -0.00611815 -0.0037149 -0.000154884 0 -1 0 
1186 13 52.9306 54.3814 31.2685 -0.00502341 0.00244792 -0.00108912 0 -1 0 
1187 14 53.4842 55.0954 31.5847 -0.00263578 0.000885866 -0.0017425 0 -1 0 
1270 13 54.7754 56.242 32.6365 -0.0118484 0.00328776 -0.00134155 0 -1 -1 
1271 14 54.6516 57.0124 32.0821 -0.0077607 -0.00733082 -0.0169624 0 -1 -1 
1272 14 54.5338 56.5369 33.5145 -0.00963079 0.0226239 -0.00719672 0 -1 -1 
1381 13 57.3232 57.3411 32.993 0.000456031 0.00442798 0.00023541 -1 0 2 
1383 14 56.5293 56.812 32.9158 -0.00292076 0.00616792 0.0235757 -1 0 2 
1395 14 56.2934 58.8937 30.5763 -0.00458824 -0.013466 0.00167932 0 -1 1 
1468 13 55.1875 61.0144 30.8831 -0.000757766 -0.000416086 -0.000319352 1 0 1 
1470 14 54.5893 60.8478 31.6116 0.00997754 0.00159791 0.0088613 1 0 1 
1795 13 51.9894 55.9675 37.2445 -0.0078572 0.00115917 5.76597e-05 -1 0 1 
1797 14 51.1032 56.3086 37.1244 -0.0148734 -0.0173704 -0.000221869 -1 0 1 
1823 14 52.0369 61.0737 30.0726 0.00562736 -0.00244132 -0.00557384 1 -2 0 
1906 13 52.7785 60.7055 35.0157 0.00149536 0.00452818 -0.00570402 0 1 -2 
1908 14 52.7843 60.0641 35.7262 -0.022604 -0.0139196 -0.0220151 0 1 -2 
133 13 58.7801 59.3668 36.225 0.00828863 -0.0049591 -0.000499964 -1 0 0 
134 14 59.4312 58.6754 36.3445 0.010074 -0.00439593 -0.00680143 -1 0 0 
395 14 36.9606 54.8462 56.9861 -0.0194739 -0.00647552 -0.00320167 0 0 0 
494 14 58.2736 59.7793 34.591 -0.00540857 -0.00775131 -0.00159879 -2 1 1 
772 13 58.828 55.2958 34.4619 -0.00632461 0.000645032 0.00409692 -1 0 0 
773 14 59.7518 55.047 34.4913 -0.00637379 -0.00104531 -0.00870476 -1 0 0 
774 14 58.5113 55.1486 35.3532 -0.00139311 -0.0261945 0.00132642 -1 0 0 
1100 14 61.0037 56.1469 30.4656 -0.0219777 -1.27489e-05 -0.00803473 0 0 2 
1143 14 61.168 61.3463 31.4725 0.00380982 -0.00111114 0.000966174 0 2 -1 
1382 14 57.9681 56.7506 33.3825 -0.0052789 0.0197388 0.0325824 -1 0 2 
1393 13 57.2109 58.658 30.7136 2.84516e-05 0.00259407 -0.0012451 0 -1 1 
1394 14 57.2367 58.3005 31.6012 0.00758248 -0.00475805 -0.00446202 0 -1 1 
1404 14 37.1554 58.9174 33.5848 0.00221748 -0.00813676 -0.00531162 1 -1 2 
1450 13 61.4016 55.0266 35.2954 0.00502601 -0.00393334 -0.00250987 0 0 1 
1451 14 61.2139 54.4031 35.997 0.014467 -0.000171555 0.00336657 0 0 1 
1452 14 62.3551 55.1101 35.2972 0.00501146 -0.00366078 -0.0155631 0 0 1 
1495 13 64.1692 59.4413 35.4688 -0.00230093 0.00204815 -0.00175064 0 0 1 
1496 14 63.4066 59.3243 36.0354 0.0187741 0.0077918 0.0277984 0 0 1 
1497 14 37.1085 60.3254 35.664 0.00843037 0.00190305 -0.0181537 1 0 1 
1754 14 60.5247 56.4022 36.3373 -0.00827862 0.00328463 -0.0121269 0 1 -1 
1975 13 63.7679 54.6965 33.525 0.00163622 0.00395787 -0.00241643 -1 0 0 
1976 14 63.9786 55.4024 32.9137 0.0135321 -0.00991768 -0.0142999 -1 0 0 
295 13 40.6654 63.4494 32.0601 0.00168563 -0.00281773 0.000172559 0 0 1 
296 14 40.3342 64.3391 31.9376 0.0071362 -0.00125925 -0.00315202 0 0 1 
297 14 41.371 63.3655 31.4186 -0.0273526 -0.0241377 -0.0283387 0 0 1 
508 13 43.0135 67.3008 32.9458 0.00447196 0.00371924 0.00144713 -1 0 1 
509 14 42.2764 66.7322 32.7233 0.0106619 0.00149055 -0.0132851 -1 0 1 
510 14 43.687 66.7041 33.2722 0.013075 0.00192779 -0.0194218 -1 0 1 
535 13 38.3226 66.1015 33.6073 -0.00810256 0.00191082 -0.000200741 -1 0 1 
536 14 38.7638 65.2982 33.8836 -0.026236 -0.00126684 0.0190996 -1 0 1 
537 14 37.585 65.8001 33.077 -0.00850437 0.00631634 -0.00218215 -1 0 1 
595 13 63.6552 66.4785 37.3214 -0.00276834 0.00370352 -0.000405938 0 -1 0 
787 13 42.1658 63.3033 34.577 -0.00132576 0.00424755 0.00158403 0 0 1 
788 14 41.6269 63.2216 33.7902 -0.0112051 0.0369293 0.00495885 0 0 1 
789 14 43.0588 63.1378 34.2746 -0.0113447 -0.0353246 -0.00673449 0 0 1 
969 14 43.5454 68.3664 31.7454 0.00969224 -0.00495532 -0.00236007 0 0 0 
1075 13 38.9899 67.082 37.2904 4.33985e-05 -0.000321619 0.00144529 2 0 0 
1077 14 39.317 66.1953 37.1393 -0.00619862 -0.00248948 0.000564966 2 0 0 
1580 14 44.0239 62.8264 30.2358 0.0064954 -0.009265 0.00888409 1 -1 0 
1594 13 40.6675 66.5361 31.5943 0.00758036 0.00243083 -0.00384385 0 -1 0 
1595 14 40.5017 66.7866 30.6854 0.005723 0.00802329 -0.00197242 0 -1 0 
1596 14 39.8606 66.7627 32.0567 0.011531 0.00712631 0.000719223 0 -1 0 
1628 14 38.2907 67.9026 33.6517 -0.00997127 0.00699153 -0.00397443 2 -1 0 
1804 13 41.7204 41.4976 56.5883 0.00389495 0.00362379 0.00340706 1 0 -1 
1850 14 37.7054 62.3897 32.6962 -0.00660637 -0.0015721 -0.0115074 0 -2 -1 
1963 13 40.4049 64.7048 36.6976 -0.00323021 0.0011352 0.00398809 0 0 1 
1965 14 40.7133 64.1899 35.9519 -0.0179459 -0.00169176 -0.000168984 0 0 1 