
                                 *****************
                                 * O   R   C   A *
                                 *****************

           --- An Ab Initio, DFT and Semiempirical electronic structure package ---

                  #######################################################
                  #                        -***-                        #
                  #  Department of molecular theory and spectroscopy    #
                  #              Directorship: Frank Neese              #
                  # Max Planck Institute for Chemical Energy Conversion #
                  #                  D-45470 Muelheim/Ruhr              #
                  #                       Germany                       #
                  #                                                     #
                  #                  All rights reserved                #
                  #                        -***-                        #
                  #######################################################


                         Program Version 4.0.0.2 - RELEASE -


 With contributions from (in alphabetic order):
   Daniel Aravena         : Magnetic Properties
   Michael Atanasov       : Ab Initio Ligand Field Theory
   Ute Becker             : Parallelization
   Martin Brehm           : Molecular dynamics
   Dmytro Bykov           : SCF Hessian
   Vijay G. Chilkuri      : MRCI spin determinant printing
   Dipayan Datta          : RHF DLPNO-CCSD density
   Achintya Kumar Dutta   : EOM-CC, STEOM-CC
   Dmitry Ganyushin       : Spin-Orbit,Spin-Spin,Magnetic field MRCI
   Yang Guo               : DLPNO-NEVPT2, CIM, IAO-localization
   Andreas Hansen         : Spin unrestricted coupled pair/coupled cluster methods
   Lee Huntington         : MR-EOM, pCC
   Robert Izsak           : Overlap fitted RIJCOSX, COSX-SCS-MP3, EOM
   Christian Kollmar      : KDIIS, OOCD, Brueckner-CCSD(T), CCSD density
   Simone Kossmann        : Meta GGA functionals, TD-DFT gradient, OOMP2, MP2 Hessian
   Martin Krupicka        : AUTO-CI
   Dagmar Lenk            : GEPOL surface
   Dimitrios Liakos       : Extrapolation schemes; parallel MDCI
   Dimitrios Manganas     : ROCIS; embedding schemes
   Dimitrios Pantazis     : SARC Basis sets
   Taras Petrenko         : DFT Hessian,TD-DFT gradient, ASA, ECA, R-Raman, ABS, FL, XAS/XES, NRVS
   Peter Pinski           : DLPNO-MP2
   Christoph Reimann      : Effective Core Potentials
   Marius Retegan         : Local ZFS, SOC
   Christoph Riplinger    : Optimizer, TS searches, QM/MM, DLPNO-CCSD(T), (RO)-DLPNO pert. Triples
   Tobias Risthaus        : Range-separated hybrids, TD-DFT gradient, RPA, STAB
   Michael Roemelt        : Restricted open shell CIS
   Masaaki Saitow         : Open-shell DLPNO
   Barbara Sandhoefer     : DKH picture change effects
   Kantharuban Sivalingam : CASSCF convergence, NEVPT2, FIC-MRCI
   Georgi Stoychev        : AutoAux
   Boris Wezisla          : Elementary symmetry handling
   Frank Wennmohs         : Technical directorship


 We gratefully acknowledge several colleagues who have allowed us to
 interface, adapt or use parts of their codes:
   Stefan Grimme, W. Hujo, H. Kruse,             : VdW corrections, initial TS optimization,
                  C. Bannwarth                     DFT functionals, gCP, sTDA/sTD-DF
   Ed Valeev                                     : LibInt (2-el integral package), F12 methods
   Garnet Chan, S. Sharma, J. Yang, R. Olivares  : DMRG
   Ulf Ekstrom                                   : XCFun DFT Library
   Mihaly Kallay                                 : mrcc  (arbitrary order and MRCC methods)
   Jiri Pittner, Ondrej Demel                    : Mk-CCSD
   Frank Weinhold                                : gennbo (NPA and NBO analysis)
   Christopher J. Cramer and Donald G. Truhlar   : smd solvation model


 Your calculation uses the libint2 library for the computation of 2-el integrals
 For citations please refer to: http://libint.valeyev.net

 This ORCA versions uses:
   CBLAS   interface :  Fast vector & matrix operations
   LAPACKE interface :  Fast linear algebra routines
   SCALAPACK package :  Parallel linear algebra routines




*****************************************
The coordinations will be read from file: 10777.xyz
*****************************************


Your calculation utilizes the basis: ma-def2-TZVP
   F. Weigend and R. Ahlrichs, Phys. Chem. Chem. Phys. 7, 3297 (2005).
   J. Zheng, X. Xu and D. G. Truhlar, Theor. Chem. Acc. 128, 295 (2011).

Your calculation utilizes the new AutoAux generation procedure.
================================================================================
                                        WARNINGS
                       Please study these warnings very carefully!
================================================================================

Warning: TCutStore was < 0. Adjusted to Thresh (uncritical)
INFO   : Checking CIS options ...

WARNING: CIS/ROCIS methods need fully converged wavefunctions
  ===> : Setting SCFConvForced true
         You can overwrite this default with %scf ConvForced false 


INFO   : the flag for use of LIBINT has been found!

================================================================================
                                       INPUT FILE
================================================================================
NAME = 10777.inp
|  1> #
|  2> # My first ORCA calculation :-)
|  3> #
|  4> %pal nprocs 12 end
|  5> 
|  6> #!PBE0 ma-def2-TZVP Grid5 FinalGrid6 TightSCF 
|  7> !PBE0 ma-def2-TZVP AutoAux RIJCOSX Grid5 FinalGrid6 TightSCF 
|  8> 
|  9> #
| 10> * xyzfile 0 1 10777.xyz
| 11> 
| 12> #%moinp "604a-pbed3-svp-opt-lrtddft.gbw"
| 13> 
| 14> #%elprop
| 15> #Polar 1
| 16> #end
| 17> 
| 18> %tddft
| 19>   #TDA false
| 20>   nroots 50   # Setting the number of roots (transitions) to be calculated.
| 21>   maxdim 250 # Setting the maximum dimension of the expansion space. Should be 5-10 times the no. of nroots for favorable convergence.
| 22>   end
| 23> 
| 24>                          ****END OF INPUT****
================================================================================

                       ****************************
                       * Single Point Calculation *
                       ****************************

---------------------------------
CARTESIAN COORDINATES (ANGSTROEM)
---------------------------------
  C     -0.626845   -0.897835   -0.753881
  C     -0.239320    0.148652   -0.305712
  C      0.243837    1.391845    0.254803
  C      0.093558    1.628127    1.791710
  C      1.526768    2.255272    1.810489
  C      1.784706    1.590567    0.417873
  C      1.529483    3.710092    1.774097
  N      1.523617    4.865976    1.735502
  H     -0.975278   -1.816424   -1.157022
  H     -0.180353    2.241088   -0.290700
  H     -0.732438    2.258038    2.121758
  H      0.079347    0.685469    2.341096
  H      2.177989    1.922308    2.621223
  H      2.300048    0.636186    0.537052
  H      2.293357    2.190898   -0.336363

----------------------------
CARTESIAN COORDINATES (A.U.)
----------------------------
  NO LB      ZA    FRAG     MASS         X           Y           Z
   0 C     6.0000    0    12.011   -1.184565   -1.696663   -1.424629
   1 C     6.0000    0    12.011   -0.452249    0.280911   -0.577712
   2 C     6.0000    0    12.011    0.460785    2.630206    0.481508
   3 C     6.0000    0    12.011    0.176800    3.076714    3.385842
   4 C     6.0000    0    12.011    2.885174    4.261846    3.421329
   5 C     6.0000    0    12.011    3.372605    3.005735    0.789666
   6 C     6.0000    0    12.011    2.890305    7.011058    3.352557
   7 N     7.0000    0    14.007    2.879218    9.195362    3.279623
   8 H     1.0000    0     1.008   -1.843009   -3.432544   -2.186454
   9 H     1.0000    0     1.008   -0.340817    4.235043   -0.549343
  10 H     1.0000    0     1.008   -1.384107    4.267073    4.009541
  11 H     1.0000    0     1.008    0.149945    1.295349    4.424030
  12 H     1.0000    0     1.008    4.115803    3.632637    4.953394
  13 H     1.0000    0     1.008    4.346460    1.202216    1.014881
  14 H     1.0000    0     1.008    4.333817    4.140197   -0.635635

--------------------------------
INTERNAL COORDINATES (ANGSTROEM)
--------------------------------
 C      0   0   0     0.000000000000     0.00000000     0.00000000
 C      1   0   0     1.202566375877     0.00000000     0.00000000
 C      2   1   0     1.446771504528   178.75273315     0.00000000
 C      3   2   1     1.562208577157   118.61952523   307.44328041
 C      4   3   2     1.564530023466    89.10128476   139.01168076
 C      3   2   1     1.562164704839   118.63015827    52.67753848
 C      5   4   3     1.455277780132   113.71170973    98.33624998
 N      7   5   4     1.156543191355   179.37718160   311.04464415
 H      1   2   3     1.061948412108   179.39986684   178.52452474
 H      3   2   1     1.094862720911   110.12687490   180.06121758
 H      4   3   2     1.089948943421   117.27208649   259.56189606
 H      4   3   2     1.091160154081   111.46431089    27.15356923
 H      5   4   3     1.091898460411   115.65986538   225.31583723
 H      6   3   2     1.091157168372   111.46845860   332.86113219
 H      6   3   2     1.089952559376   117.26722217   100.45055881

---------------------------
INTERNAL COORDINATES (A.U.)
---------------------------
 C      0   0   0     0.000000000000     0.00000000     0.00000000
 C      1   0   0     2.272521108269     0.00000000     0.00000000
 C      2   1   0     2.734001921918   178.75273315     0.00000000
 C      3   2   1     2.952146374890   118.61952523   307.44328041
 C      4   3   2     2.956533272648    89.10128476   139.01168076
 C      3   2   1     2.952063468224   118.63015827    52.67753848
 C      5   4   3     2.750076453230   113.71170973    98.33624998
 N      7   5   4     2.185549893713   179.37718160   311.04464415
 H      1   2   3     2.006791667237   179.39986684   178.52452474
 H      3   2   1     2.068990696762   110.12687490   180.06121758
 H      4   3   2     2.059705003022   117.27208649   259.56189606
 H      4   3   2     2.061993859460   111.46431089    27.15356923
 H      5   4   3     2.063389056227   115.65986538   225.31583723
 H      6   3   2     2.061988217287   111.46845860   332.86113219
 H      6   3   2     2.059711836187   117.26722217   100.45055881

---------------------
BASIS SET INFORMATION
---------------------
There are 3 groups of distinct atoms

 Group   1 Type C   : 12s7p2d1f contracted to 6s4p2d1f pattern {621111/4111/11/1}
 Group   2 Type N   : 12s7p2d1f contracted to 6s4p2d1f pattern {621111/4111/11/1}
 Group   3 Type H   : 5s1p contracted to 3s1p pattern {311/1}

Atom   0C    basis set group =>   1
Atom   1C    basis set group =>   1
Atom   2C    basis set group =>   1
Atom   3C    basis set group =>   1
Atom   4C    basis set group =>   1
Atom   5C    basis set group =>   1
Atom   6C    basis set group =>   1
Atom   7N    basis set group =>   2
Atom   8H    basis set group =>   3
Atom   9H    basis set group =>   3
Atom  10H    basis set group =>   3
Atom  11H    basis set group =>   3
Atom  12H    basis set group =>   3
Atom  13H    basis set group =>   3
Atom  14H    basis set group =>   3
-------------------------------
AUXILIARY BASIS SET INFORMATION
-------------------------------
There are 3 groups of distinct atoms

 Group   1 Type C   : 18s15p14d7f3g contracted to 18s15p14d7f3g pattern {111111111111111111/111111111111111/11111111111111/1111111/111}
 Group   2 Type N   : 18s15p14d7f3g contracted to 18s15p14d7f3g pattern {111111111111111111/111111111111111/11111111111111/1111111/111}
 Group   3 Type H   : 11s3p1d contracted to 11s3p1d pattern {11111111111/111/1}

Atom   0C    basis set group =>   1
Atom   1C    basis set group =>   1
Atom   2C    basis set group =>   1
Atom   3C    basis set group =>   1
Atom   4C    basis set group =>   1
Atom   5C    basis set group =>   1
Atom   6C    basis set group =>   1
Atom   7N    basis set group =>   2
Atom   8H    basis set group =>   3
Atom   9H    basis set group =>   3
Atom  10H    basis set group =>   3
Atom  11H    basis set group =>   3
Atom  12H    basis set group =>   3
Atom  13H    basis set group =>   3
Atom  14H    basis set group =>   3
-------------------------
ECP PARAMETER INFORMATION
-------------------------





           ************************************************************
           *        Program running with 12 parallel MPI-processes    *
           *              working on a common directory               *
           ************************************************************
------------------------------------------------------------------------------
                           ORCA GTO INTEGRAL CALCULATION
                           -- RI-GTO INTEGRALS CHOSEN --
------------------------------------------------------------------------------

                         BASIS SET STATISTICS AND STARTUP INFO

Gaussian basis set:
 # of primitive gaussian shells          ...  218
 # of primitive gaussian functions       ...  456
 # of contracted shells                  ...  132
 # of contracted basis functions         ...  322
 Highest angular momentum                ...    3
 Maximum contraction depth               ...    6
Auxiliary gaussian basis set:
 # of primitive gaussian shells          ...  561
 # of primitive gaussian functions       ... 1847
 # of contracted shells                  ...  561
 # of contracted aux-basis functions     ... 1847
 Highest angular momentum                ...    4
 Maximum contraction depth               ...    1
Ratio of auxiliary to basis functions    ...  5.74
Integral package used                  ... LIBINT
 One Electron integrals                  
   ECP integrals                         ... done
 Ordering auxiliary basis shells         ... done
 Integral threshhold             Thresh  ...  2.500e-11
 Primitive cut-off               TCut    ...  2.500e-12
 Pre-screening matrix                    ... done
 Shell pair data                         ... 
 Ordering of the shell pairs             ... done (   0.002 sec) 8207 of 8778 pairs
 Determination of significant pairs      ... done (   0.000 sec)
 Creation of shell pair data             ... done (   0.004 sec)
 Storage of shell pair data              ... done (   0.006 sec)
 Shell pair data done in (   0.013 sec)
 Computing two index integrals           ... done
 Cholesky decomposition of the V-matrix  ... done


Timings:
 Total evaluation time                   ...   0.912 sec (  0.015 min)
 One electron matrix time                ...   0.111 sec (  0.002 min) = 12.2%
 Schwartz matrix evaluation time         ...   0.324 sec (  0.005 min) = 35.5%
 Two index repulsion integral time       ...   0.156 sec (  0.003 min) = 17.1%
 Cholesky decomposition of V             ...   0.272 sec (  0.005 min) = 29.8%
 Three index repulsion integral time     ...   0.000 sec (  0.000 min) =  0.0%



           ************************************************************
           *        Program running with 12 parallel MPI-processes    *
           *              working on a common directory               *
           ************************************************************
-------------------------------------------------------------------------------
                                 ORCA SCF
-------------------------------------------------------------------------------

------------
SCF SETTINGS
------------
Hamiltonian:
 Density Functional     Method          .... DFT(GTOs)
 Exchange Functional    Exchange        .... PBE
   PBE kappa parameter   XKappa         ....  0.804000
   PBE mue parameter    XMuePBE         ....  0.219520
 Correlation Functional Correlation     .... PBE
   PBE beta parameter  CBetaPBE         ....  0.066725
 LDA part of GGA corr.  LDAOpt          .... PW91-LDA
 Gradients option       PostSCFGGA      .... off
 Hybrid DFT is turned on
   Fraction HF Exchange ScalHFX         ....  0.250000
   Scaling of DF-GGA-X  ScalDFX         ....  0.750000
   Scaling of DF-GGA-C  ScalDFC         ....  1.000000
   Scaling of DF-LDA-C  ScalLDAC        ....  1.000000
   Perturbative correction              ....  0.000000
   NL short-range parameter             ....  6.900000
 RI-approximation to the Coulomb term is turned on
   Number of auxiliary basis functions  .... 1847
   RIJ-COSX (HFX calculated with COS-X)).... on


General Settings:
 Integral files         IntName         .... 10777
 Hartree-Fock type      HFTyp           .... RHF
 Total Charge           Charge          ....    0
 Multiplicity           Mult            ....    1
 Number of Electrons    NEL             ....   56
 Basis Dimension        Dim             ....  322
 Nuclear Repulsion      ENuc            ....    309.3379350431 Eh

Convergence Acceleration:
 DIIS                   CNVDIIS         .... on
   Start iteration      DIISMaxIt       ....    12
   Startup error        DIISStart       ....  0.200000
   # of expansion vecs  DIISMaxEq       ....     5
   Bias factor          DIISBfac        ....   1.050
   Max. coefficient     DIISMaxC        ....  10.000
 Newton-Raphson         CNVNR           .... off
 SOSCF                  CNVSOSCF        .... on
   Start iteration      SOSCFMaxIt      ....   150
   Startup grad/error   SOSCFStart      ....  0.003300
 Level Shifting         CNVShift        .... on
   Level shift para.    LevelShift      ....    0.2500
   Turn off err/grad.   ShiftErr        ....    0.0010
 Zerner damping         CNVZerner       .... off
 Static damping         CNVDamp         .... on
   Fraction old density DampFac         ....    0.7000
   Max. Damping (<1)    DampMax         ....    0.9800
   Min. Damping (>=0)   DampMin         ....    0.0000
   Turn off err/grad.   DampErr         ....    0.1000
 Fernandez-Rico         CNVRico         .... off

SCF Procedure:
 Maximum # iterations   MaxIter         ....   125
 SCF integral mode      SCFMode         .... Direct
   Integral package                     .... LIBINT
 Reset frequeny         DirectResetFreq ....    20
 Integral Threshold     Thresh          ....  2.500e-11 Eh
 Primitive CutOff       TCut            ....  2.500e-12 Eh

Convergence Tolerance:
 Convergence Check Mode ConvCheckMode   .... Total+1el-Energy
 Convergence forced     ConvForced      .... 1
 Energy Change          TolE            ....  1.000e-08 Eh
 1-El. energy change                    ....  1.000e-05 Eh
 Orbital Gradient       TolG            ....  1.000e-05
 Orbital Rotation angle TolX            ....  1.000e-05
 DIIS Error             TolErr          ....  5.000e-07


Diagonalization of the overlap matrix:
Smallest eigenvalue                        ... 1.551e-06
Time for diagonalization                   ...    0.036 sec
Threshold for overlap eigenvalues          ... 1.000e-08
Number of eigenvalues below threshold      ... 0
Time for construction of square roots      ...    0.048 sec
Total time needed                          ...    0.084 sec

-------------------
DFT GRID GENERATION
-------------------

General Integration Accuracy     IntAcc      ...  5.010
Radial Grid Type                 RadialGrid  ... Gauss-Chebyshev
Angular Grid (max. acc.)         AngularGrid ... Lebedev-434
Angular grid pruning method      GridPruning ... 3 (G Style)
Weight generation scheme         WeightScheme... Becke
Basis function cutoff            BFCut       ...    1.0000e-11
Integration weight cutoff        WCut        ...    1.0000e-14
Grids for H and He will be reduced by one unit

# of grid points (after initial pruning)     ... 132320 (   0.0 sec)
# of grid points (after weights+screening)   ... 121108 (   0.1 sec)
nearest neighbour list constructed           ...    0.0 sec
Grid point re-assignment to atoms done       ...    0.0 sec
Grid point division into batches done        ...    1.3 sec
Reduced shell lists constructed in    1.6 sec

Total number of grid points                  ...   121108
Total number of batches                      ...     1899
Average number of points per batch           ...       63
Average number of grid points per atom       ...     8074
Average number of shells per batch           ...    84.89 (64.31%)
Average number of basis functions per batch  ...   202.81 (62.98%)
Average number of large shells per batch     ...    68.07 (80.18%)
Average number of large basis fcns per batch ...   159.82 (78.80%)
Maximum spatial batch extension              ...   8.41,  4.76,  7.44 au
Average spatial batch extension              ...   0.13,  0.11,  0.13 au

Time for grid setup =    1.949 sec

------------------------------
INITIAL GUESS: MODEL POTENTIAL
------------------------------
Loading Hartree-Fock densities                     ... done
Calculating cut-offs                               ... done
Setting up the integral package                    ... done
Initializing the effective Hamiltonian             ... done
Starting the Coulomb interaction                   ... done (   0.1 sec)
Reading the grid                                   ... done
Mapping shells                                     ... done
Starting the XC term evaluation                    ... done (   0.7 sec)
  promolecular density results
     # of electrons  =     55.996571991
     EX              =    -44.277418143
     EC              =     -1.820128240
     EX+EC           =    -46.097546383
Transforming the Hamiltonian                       ... done (   0.0 sec)
Diagonalizing the Hamiltonian                      ... done (   0.0 sec)
Back transforming the eigenvectors                 ... done (   0.0 sec)
Now organizing SCF variables                       ... done
                      ------------------
                      INITIAL GUESS DONE (   3.0 sec)
                      ------------------
--------------------
COSX GRID GENERATION
--------------------

General Integration Accuracy     IntAcc      ...  3.340
Radial Grid Type                 RadialGrid  ... Gauss-Chebyshev
Angular Grid (max. acc.)         AngularGrid ... Lebedev-50
Angular grid pruning method      GridPruning ... 3 (G Style)
Weight generation scheme         WeightScheme... Becke
Basis function cutoff            BFCut       ...    1.0000e-11
Integration weight cutoff        WCut        ...    1.0000e-14
Grids for H and He will be reduced by one unit

# of grid points (after initial pruning)     ...   6866 (   0.0 sec)
# of grid points (after weights+screening)   ...   6437 (   0.0 sec)
nearest neighbour list constructed           ...    0.0 sec
Grid point re-assignment to atoms done       ...    0.0 sec
Grid point division into batches done        ...    0.0 sec
Reduced shell lists constructed in    0.0 sec

Total number of grid points                  ...     6437
Total number of batches                      ...      107
Average number of points per batch           ...       60
Average number of grid points per atom       ...      429
Average number of shells per batch           ...    84.90 (64.32%)
Average number of basis functions per batch  ...   205.50 (63.82%)
Average number of large shells per batch     ...    67.80 (79.86%)
Average number of large basis fcns per batch ...   159.80 (77.76%)
Maximum spatial batch extension              ...   8.99,  6.27, 11.40 au
Average spatial batch extension              ...   0.39,  0.28,  0.40 au

Overlap Fitting                  UseSFitting ... on
Constructing numerical overlap ... done (      0.0 sec)
Inverting numerical overlap    ... done (      0.0 sec)
Obtaining analytic overlap     ... done (      0.0 sec)
Final contraction and storage  ... done (      0.0 sec)


General Integration Accuracy     IntAcc      ...  3.670
Radial Grid Type                 RadialGrid  ... Gauss-Chebyshev
Angular Grid (max. acc.)         AngularGrid ... Lebedev-50
Angular grid pruning method      GridPruning ... 3 (G Style)
Weight generation scheme         WeightScheme... Becke
Basis function cutoff            BFCut       ...    1.0000e-11
Integration weight cutoff        WCut        ...    1.0000e-14
Grids for H and He will be reduced by one unit

# of grid points (after initial pruning)     ...   8700 (   0.0 sec)
# of grid points (after weights+screening)   ...   8138 (   0.0 sec)
nearest neighbour list constructed           ...    0.0 sec
Grid point re-assignment to atoms done       ...    0.0 sec
Grid point division into batches done        ...    0.0 sec
Reduced shell lists constructed in    0.0 sec

Total number of grid points                  ...     8138
Total number of batches                      ...      134
Average number of points per batch           ...       60
Average number of grid points per atom       ...      543
Average number of shells per batch           ...    87.23 (66.08%)
Average number of basis functions per batch  ...   211.08 (65.55%)
Average number of large shells per batch     ...    69.38 (79.54%)
Average number of large basis fcns per batch ...   164.46 (77.92%)
Maximum spatial batch extension              ...   8.63,  6.22, 13.07 au
Average spatial batch extension              ...   0.36,  0.27,  0.38 au

Overlap Fitting                  UseSFitting ... on
Constructing numerical overlap ... done (      0.0 sec)
Inverting numerical overlap    ... done (      0.0 sec)
Obtaining analytic overlap     ... done (      0.0 sec)
Final contraction and storage  ... done (      0.0 sec)


General Integration Accuracy     IntAcc      ...  4.010
Radial Grid Type                 RadialGrid  ... Gauss-Chebyshev
Angular Grid (max. acc.)         AngularGrid ... Lebedev-110
Angular grid pruning method      GridPruning ... 3 (G Style)
Weight generation scheme         WeightScheme... Becke
Basis function cutoff            BFCut       ...    1.0000e-11
Integration weight cutoff        WCut        ...    1.0000e-14
Grids for H and He will be reduced by one unit

# of grid points (after initial pruning)     ...  16420 (   0.0 sec)
# of grid points (after weights+screening)   ...  15309 (   0.0 sec)
nearest neighbour list constructed           ...    0.0 sec
Grid point re-assignment to atoms done       ...    0.0 sec
Grid point division into batches done        ...    0.0 sec
Reduced shell lists constructed in    0.1 sec

Total number of grid points                  ...    15309
Total number of batches                      ...      247
Average number of points per batch           ...       61
Average number of grid points per atom       ...     1021
Average number of shells per batch           ...    86.05 (65.19%)
Average number of basis functions per batch  ...   205.95 (63.96%)
Average number of large shells per batch     ...    68.86 (80.03%)
Average number of large basis fcns per batch ...   162.05 (78.68%)
Maximum spatial batch extension              ...   7.44,  5.57, 11.20 au
Average spatial batch extension              ...   0.26,  0.21,  0.28 au

Overlap Fitting                  UseSFitting ... on
Constructing numerical overlap ... done (      0.1 sec)
Inverting numerical overlap    ... done (      0.0 sec)
Obtaining analytic overlap     ... done (      0.0 sec)
Final contraction and storage  ... done (      0.0 sec)

Time for X-Grid setup             =    0.622 sec
--------------
SCF ITERATIONS
--------------
ITER       Energy         Delta-E        Max-DP      RMS-DP      [F,P]     Damp
               ***  Starting incremental Fock matrix formation  ***
  0   -325.1020869198   0.000000000000 0.16265579  0.00192689  0.2720459 0.7000
  1   -325.2009413282  -0.098854408388 0.15715053  0.00145415  0.1049592 0.7000
                               ***Turning on DIIS***
  2   -325.2408292342  -0.039887906018 0.22849801  0.00260539  0.0387245 0.0000
  3   -325.3045040516  -0.063674817384 0.14351257  0.00130952  0.0538403 0.0000
  4   -325.3169145051  -0.012410453578 0.04353344  0.00050348  0.0275077 0.0000
  5   -325.3182729189  -0.001358413723 0.02018280  0.00022267  0.0040095 0.0000
                      *** Initiating the SOSCF procedure ***
                           *** Shutting down DIIS ***
                      *** Re-Reading the Fockian *** 
                      *** Removing any level shift *** 
ITER      Energy       Delta-E        Grad      Rot      Max-DP    RMS-DP
  6   -325.31831895  -0.0000460305  0.000309  0.000309  0.012050  0.000123
               *** Restarting incremental Fock matrix formation ***
  7   -325.31832849  -0.0000095420  0.000210  0.000715  0.009086  0.000070
  8   -325.31832441   0.0000040853  0.000447  0.000499  0.000965  0.000013
  9   -325.31833002  -0.0000056136  0.000047  0.000100  0.002271  0.000024
 10   -325.31832987   0.0000001486  0.000077  0.000062  0.001874  0.000015
 11   -325.31833014  -0.0000002722  0.000013  0.000033  0.002889  0.000025
 12   -325.31833012   0.0000000230  0.000028  0.000023  0.001776  0.000014
                  ***Gradient check signals convergence***
              ***Rediagonalizing the Fockian in SOSCF/NRSCF***

               *****************************************************
               *                     SUCCESS                       *
               *           SCF CONVERGED AFTER  13 CYCLES          *
               *****************************************************

Old exchange energy                            =    -11.319700502 Eh
New exchange energy                            =    -11.319649686 Eh
Exchange energy change after final integration =      0.000050816 Eh
Total energy after final integration           =   -325.318279333 Eh
Final COS-X integration done in                =     4.284 sec

----------------
TOTAL SCF ENERGY
----------------

Total Energy       :         -325.31827933 Eh           -8852.36043 eV

Components:
Nuclear Repulsion  :          309.33793504 Eh            8417.51315 eV
Electronic Energy  :         -634.65621438 Eh          -17269.87358 eV
One Electron Energy:        -1050.16779359 Eh          -28576.51847 eV
Two Electron Energy:          415.51157921 Eh           11306.64489 eV

Virial components:
Potential Energy   :         -648.93360349 Eh          -17658.38109 eV
Kinetic Energy     :          323.61532416 Eh            8806.02066 eV
Virial Ratio       :            2.00526228


DFT components:
N(Alpha)           :       27.999998523969 electrons
N(Beta)            :       27.999998523969 electrons
N(Total)           :       55.999997047938 electrons
E(X)               :      -33.864705480620 Eh       
E(C)               :       -1.832709332893 Eh       
E(XC)              :      -35.697414813512 Eh       

---------------
SCF CONVERGENCE
---------------

  Last Energy change         ...   -2.8822e-08  Tolerance :   1.0000e-08
  Last MAX-Density change    ...    1.4080e-13  Tolerance :   1.0000e-07
  Last RMS-Density change    ...    1.1888e-15  Tolerance :   5.0000e-09
  Last Orbital Gradient      ...    1.3704e-06  Tolerance :   1.0000e-05
  Last Orbital Rotation      ...    2.3447e-06  Tolerance :   1.0000e-05

             **** THE GBW FILE WAS UPDATED (10777.gbw) ****
             **** DENSITY FILE WAS UPDATED (10777.scfp.tmp) ****
             **** ENERGY FILE WAS UPDATED (10777.en.tmp) ****
----------------
ORBITAL ENERGIES
----------------

  NO   OCC          E(Eh)            E(eV) 
   0   2.0000     -14.384308      -391.4169 
   1   2.0000     -10.289822      -280.0003 
   2   2.0000     -10.276256      -279.6312 
   3   2.0000     -10.265271      -279.3322 
   4   2.0000     -10.260854      -279.2120 
   5   2.0000     -10.260808      -279.2108 
   6   2.0000     -10.239735      -278.6373 
   7   2.0000     -10.228757      -278.3386 
   8   2.0000      -0.942521       -25.6473 
   9   2.0000      -0.911055       -24.7911 
  10   2.0000      -0.802668       -21.8417 
  11   2.0000      -0.741228       -20.1699 
  12   2.0000      -0.717565       -19.5259 
  13   2.0000      -0.645629       -17.5685 
  14   2.0000      -0.574302       -15.6275 
  15   2.0000      -0.543830       -14.7984 
  16   2.0000      -0.532019       -14.4770 
  17   2.0000      -0.486906       -13.2494 
  18   2.0000      -0.447706       -12.1827 
  19   2.0000      -0.432308       -11.7637 
  20   2.0000      -0.413713       -11.2577 
  21   2.0000      -0.389868       -10.6088 
  22   2.0000      -0.381971       -10.3940 
  23   2.0000      -0.374269       -10.1844 
  24   2.0000      -0.344137        -9.3645 
  25   2.0000      -0.336124        -9.1464 
  26   2.0000      -0.295723        -8.0470 
  27   2.0000      -0.295032        -8.0282 
  28   0.0000      -0.010646        -0.2897 
  29   0.0000      -0.001739        -0.0473 
  30   0.0000       0.007597         0.2067 
  31   0.0000       0.008623         0.2346 
  32   0.0000       0.020149         0.5483 
  33   0.0000       0.025778         0.7015 
  34   0.0000       0.027181         0.7396 
  35   0.0000       0.038021         1.0346 
  36   0.0000       0.040127         1.0919 
  37   0.0000       0.049923         1.3585 
  38   0.0000       0.052428         1.4266 
  39   0.0000       0.055309         1.5050 
  40   0.0000       0.061524         1.6741 
  41   0.0000       0.063796         1.7360 
  42   0.0000       0.079264         2.1569 
  43   0.0000       0.082166         2.2358 
  44   0.0000       0.087329         2.3763 
  45   0.0000       0.090347         2.4585 
  46   0.0000       0.095003         2.5852 
  47   0.0000       0.097215         2.6454 
  48   0.0000       0.099391         2.7046 
  49   0.0000       0.104131         2.8336 
  50   0.0000       0.115940         3.1549 
  51   0.0000       0.118028         3.2117 
  52   0.0000       0.119789         3.2596 
  53   0.0000       0.130984         3.5643 
  54   0.0000       0.138176         3.7600 
  55   0.0000       0.141992         3.8638 
  56   0.0000       0.147684         4.0187 
  57   0.0000       0.157773         4.2932 
  58   0.0000       0.164865         4.4862 
  59   0.0000       0.165246         4.4966 
  60   0.0000       0.174129         4.7383 
  61   0.0000       0.177140         4.8202 
  62   0.0000       0.178024         4.8443 
  63   0.0000       0.189076         5.1450 
  64   0.0000       0.196994         5.3605 
  65   0.0000       0.200221         5.4483 
  66   0.0000       0.206979         5.6322 
  67   0.0000       0.207606         5.6492 
  68   0.0000       0.217024         5.9055 
  69   0.0000       0.220128         5.9900 
  70   0.0000       0.224839         6.1182 
  71   0.0000       0.228853         6.2274 
  72   0.0000       0.232431         6.3248 
  73   0.0000       0.254269         6.9190 
  74   0.0000       0.259941         7.0733 
  75   0.0000       0.278456         7.5772 
  76   0.0000       0.291931         7.9439 
  77   0.0000       0.301953         8.2166 
  78   0.0000       0.319487         8.6937 
  79   0.0000       0.341243         9.2857 
  80   0.0000       0.358254         9.7486 
  81   0.0000       0.364961         9.9311 
  82   0.0000       0.371982        10.1221 
  83   0.0000       0.386348        10.5131 
  84   0.0000       0.393371        10.7042 
  85   0.0000       0.399680        10.8758 
  86   0.0000       0.402562        10.9543 
  87   0.0000       0.426899        11.6165 
  88   0.0000       0.435251        11.8438 
  89   0.0000       0.443872        12.0784 
  90   0.0000       0.444555        12.0969 
  91   0.0000       0.453178        12.3316 
  92   0.0000       0.453679        12.3452 
  93   0.0000       0.460711        12.5366 
  94   0.0000       0.475096        12.9280 
  95   0.0000       0.482348        13.1254 
  96   0.0000       0.492306        13.3963 
  97   0.0000       0.503225        13.6935 
  98   0.0000       0.512906        13.9569 
  99   0.0000       0.522786        14.2257 
 100   0.0000       0.523398        14.2424 
 101   0.0000       0.530785        14.4434 
 102   0.0000       0.549946        14.9648 
 103   0.0000       0.563681        15.3385 
 104   0.0000       0.563938        15.3455 
 105   0.0000       0.577133        15.7046 
 106   0.0000       0.577876        15.7248 
 107   0.0000       0.610693        16.6178 
 108   0.0000       0.621522        16.9125 
 109   0.0000       0.629612        17.1326 
 110   0.0000       0.645594        17.5675 
 111   0.0000       0.657258        17.8849 
 112   0.0000       0.663575        18.0568 
 113   0.0000       0.675816        18.3899 
 114   0.0000       0.677664        18.4402 
 115   0.0000       0.741629        20.1807 
 116   0.0000       0.757423        20.6105 
 117   0.0000       0.774750        21.0820 
 118   0.0000       0.791042        21.5253 
 119   0.0000       0.836038        22.7497 
 120   0.0000       0.864004        23.5108 
 121   0.0000       0.882333        24.0095 
 122   0.0000       0.899936        24.4885 
 123   0.0000       0.922384        25.0993 
 124   0.0000       0.930427        25.3182 
 125   0.0000       0.943185        25.6654 
 126   0.0000       0.959255        26.1026 
 127   0.0000       0.979558        26.6551 
 128   0.0000       0.984749        26.7964 
 129   0.0000       0.992050        26.9951 
 130   0.0000       1.021637        27.8001 
 131   0.0000       1.021827        27.8053 
 132   0.0000       1.040949        28.3257 
 133   0.0000       1.053922        28.6787 
 134   0.0000       1.064888        28.9771 
 135   0.0000       1.102304        29.9952 
 136   0.0000       1.130633        30.7661 
 137   0.0000       1.139816        31.0160 
 138   0.0000       1.154584        31.4178 
 139   0.0000       1.177614        32.0445 
 140   0.0000       1.196265        32.5520 
 141   0.0000       1.199466        32.6391 
 142   0.0000       1.211594        32.9692 
 143   0.0000       1.233681        33.5702 
 144   0.0000       1.257628        34.2218 
 145   0.0000       1.282436        34.8968 
 146   0.0000       1.294258        35.2186 
 147   0.0000       1.330569        36.2066 
 148   0.0000       1.378037        37.4983 
 149   0.0000       1.395281        37.9675 
 150   0.0000       1.435730        39.0682 
 151   0.0000       1.441494        39.2250 
 152   0.0000       1.460066        39.7304 
 153   0.0000       1.487225        40.4694 
 154   0.0000       1.521715        41.4080 
 155   0.0000       1.537416        41.8352 
 156   0.0000       1.561927        42.5022 
 157   0.0000       1.584592        43.1189 
 158   0.0000       1.588721        43.2313 
 159   0.0000       1.598760        43.5045 
 160   0.0000       1.602832        43.6153 
 161   0.0000       1.630526        44.3689 
 162   0.0000       1.664493        45.2932 
 163   0.0000       1.669435        45.4276 
 164   0.0000       1.675855        45.6023 
 165   0.0000       1.682205        45.7751 
 166   0.0000       1.715530        46.6819 
 167   0.0000       1.725290        46.9475 
 168   0.0000       1.754106        47.7317 
 169   0.0000       1.756241        47.7897 
 170   0.0000       1.766755        48.0758 
 171   0.0000       1.807956        49.1970 
 172   0.0000       1.813414        49.3455 
 173   0.0000       1.847965        50.2857 
 174   0.0000       1.860375        50.6234 
 175   0.0000       1.863313        50.7033 
 176   0.0000       1.921944        52.2988 
 177   0.0000       1.944196        52.9043 
 178   0.0000       1.982538        53.9476 
 179   0.0000       2.026546        55.1451 
 180   0.0000       2.048590        55.7450 
 181   0.0000       2.065262        56.1986 
 182   0.0000       2.108939        57.3872 
 183   0.0000       2.147566        58.4382 
 184   0.0000       2.179069        59.2955 
 185   0.0000       2.200570        59.8805 
 186   0.0000       2.239304        60.9345 
 187   0.0000       2.251999        61.2800 
 188   0.0000       2.283917        62.1485 
 189   0.0000       2.289485        62.3001 
 190   0.0000       2.313106        62.9428 
 191   0.0000       2.357538        64.1519 
 192   0.0000       2.369945        64.4895 
 193   0.0000       2.415091        65.7180 
 194   0.0000       2.416201        65.7482 
 195   0.0000       2.456923        66.8563 
 196   0.0000       2.476507        67.3892 
 197   0.0000       2.476999        67.4026 
 198   0.0000       2.482946        67.5644 
 199   0.0000       2.505235        68.1709 
 200   0.0000       2.531289        68.8799 
 201   0.0000       2.536011        69.0084 
 202   0.0000       2.550663        69.4071 
 203   0.0000       2.560467        69.6739 
 204   0.0000       2.582817        70.2820 
 205   0.0000       2.599871        70.7461 
 206   0.0000       2.606689        70.9316 
 207   0.0000       2.645431        71.9858 
 208   0.0000       2.651617        72.1542 
 209   0.0000       2.669215        72.6330 
 210   0.0000       2.678342        72.8814 
 211   0.0000       2.701949        73.5238 
 212   0.0000       2.706438        73.6459 
 213   0.0000       2.719760        74.0084 
 214   0.0000       2.735009        74.4234 
 215   0.0000       2.756031        74.9954 
 216   0.0000       2.758072        75.0510 
 217   0.0000       2.810387        76.4745 
 218   0.0000       2.842776        77.3559 
 219   0.0000       2.856009        77.7160 
 220   0.0000       2.868111        78.0453 
 221   0.0000       2.873999        78.2055 
 222   0.0000       2.884673        78.4960 
 223   0.0000       2.900718        78.9326 
 224   0.0000       2.929465        79.7148 
 225   0.0000       2.937493        79.9333 
 226   0.0000       2.954740        80.4026 
 227   0.0000       2.957595        80.4803 
 228   0.0000       2.980334        81.0990 
 229   0.0000       2.988035        81.3086 
 230   0.0000       3.002637        81.7059 
 231   0.0000       3.038367        82.6782 
 232   0.0000       3.057885        83.2093 
 233   0.0000       3.061018        83.2945 
 234   0.0000       3.063389        83.3590 
 235   0.0000       3.088722        84.0484 
 236   0.0000       3.092406        84.1487 
 237   0.0000       3.111326        84.6635 
 238   0.0000       3.139425        85.4281 
 239   0.0000       3.139635        85.4338 
 240   0.0000       3.152911        85.7951 
 241   0.0000       3.195458        86.9528 
 242   0.0000       3.209652        87.3391 
 243   0.0000       3.225594        87.7729 
 244   0.0000       3.227248        87.8179 
 245   0.0000       3.239982        88.1644 
 246   0.0000       3.281285        89.2883 
 247   0.0000       3.312069        90.1260 
 248   0.0000       3.324566        90.4660 
 249   0.0000       3.325670        90.4961 
 250   0.0000       3.346952        91.0752 
 251   0.0000       3.396334        92.4189 
 252   0.0000       3.411448        92.8302 
 253   0.0000       3.432872        93.4132 
 254   0.0000       3.446312        93.7789 
 255   0.0000       3.448517        93.8389 
 256   0.0000       3.477990        94.6409 
 257   0.0000       3.496516        95.1450 
 258   0.0000       3.504708        95.3680 
 259   0.0000       3.547118        96.5220 
 260   0.0000       3.592784        97.7646 
 261   0.0000       3.601454        98.0005 
 262   0.0000       3.695748       100.5664 
 263   0.0000       3.713999       101.0630 
 264   0.0000       3.718657       101.1898 
 265   0.0000       3.759940       102.3132 
 266   0.0000       3.772067       102.6432 
 267   0.0000       3.792618       103.2024 
 268   0.0000       3.792815       103.2077 
 269   0.0000       3.851973       104.8175 
 270   0.0000       3.867740       105.2466 
 271   0.0000       3.894057       105.9627 
 272   0.0000       3.981534       108.3430 
 273   0.0000       3.984224       108.4162 
 274   0.0000       3.988840       108.5418 
 275   0.0000       4.024782       109.5199 
 276   0.0000       4.063118       110.5631 
 277   0.0000       4.079921       111.0203 
 278   0.0000       4.094991       111.4304 
 279   0.0000       4.122015       112.1657 
 280   0.0000       4.153325       113.0177 
 281   0.0000       4.197873       114.2299 
 282   0.0000       4.205170       114.4285 
 283   0.0000       4.268436       116.1501 
 284   0.0000       4.290394       116.7475 
 285   0.0000       4.342755       118.1724 
 286   0.0000       4.391625       119.5022 
 287   0.0000       4.425519       120.4245 
 288   0.0000       4.436272       120.7171 
 289   0.0000       4.458943       121.3340 
 290   0.0000       4.539888       123.5366 
 291   0.0000       4.572858       124.4338 
 292   0.0000       4.583069       124.7116 
 293   0.0000       4.585336       124.7733 
 294   0.0000       4.648418       126.4899 
 295   0.0000       4.693815       127.7252 
 296   0.0000       4.722225       128.4983 
 297   0.0000       4.797236       130.5394 
 298   0.0000       4.824311       131.2762 
 299   0.0000       4.905793       133.4934 
 300   0.0000       4.951281       134.7312 
 301   0.0000       4.974634       135.3667 
 302   0.0000       5.011211       136.3620 
 303   0.0000       5.042661       137.2178 
 304   0.0000       5.113435       139.1436 
 305   0.0000       5.155530       140.2891 
 306   0.0000       5.244602       142.7129 
 307   0.0000       5.251086       142.8893 
 308   0.0000       5.272146       143.4624 
 309   0.0000       5.661674       154.0620 
 310   0.0000       5.682499       154.6287 
 311   0.0000       5.786123       157.4484 
 312   0.0000       5.844458       159.0358 
 313   0.0000       6.149256       167.3298 
 314   0.0000      22.482587       611.7823 
 315   0.0000      22.604320       615.0948 
 316   0.0000      22.681580       617.1972 
 317   0.0000      22.694271       617.5425 
 318   0.0000      22.889529       622.8558 
 319   0.0000      23.516191       639.9081 
 320   0.0000      23.804029       647.7406 
 321   0.0000      32.428841       882.4336 

                    ********************************
                    * MULLIKEN POPULATION ANALYSIS *
                    ********************************

-----------------------
MULLIKEN ATOMIC CHARGES
-----------------------
   0 C :    0.058467
   1 C :   -0.013324
   2 C :   -0.428152
   3 C :   -0.328101
   4 C :    0.425989
   5 C :   -0.329868
   6 C :   -0.292337
   7 N :   -0.119782
   8 H :    0.167142
   9 H :    0.138803
  10 H :    0.148499
  11 H :    0.142171
  12 H :    0.140274
  13 H :    0.141685
  14 H :    0.148536
Sum of atomic charges:    0.0000000

--------------------------------
MULLIKEN REDUCED ORBITAL CHARGES
--------------------------------
  0 C s       :     3.037302  s :     3.037302
      pz      :     0.969223  p :     2.895544
      px      :     0.975536
      py      :     0.950784
      dz2     :     0.001058  d :     0.001965
      dxz     :     0.000598
      dyz     :    -0.000197
      dx2y2   :    -0.000250
      dxy     :     0.000756
      f0      :     0.000392  f :     0.006722
      f+1     :     0.000229
      f-1     :     0.001568
      f+2     :     0.000952
      f-2     :     0.000939
      f+3     :     0.001110
      f-3     :     0.001531
  1 C s       :     3.413907  s :     3.413907
      pz      :     0.836976  p :     2.484148
      px      :     0.871027
      py      :     0.776145
      dz2     :     0.016545  d :     0.104765
      dxz     :     0.007817
      dyz     :     0.028697
      dx2y2   :     0.023908
      dxy     :     0.027797
      f0      :     0.000493  f :     0.010504
      f+1     :     0.000400
      f-1     :     0.002696
      f+2     :     0.001420
      f-2     :     0.001375
      f+3     :     0.001554
      f-3     :     0.002565
  2 C s       :     3.463387  s :     3.463387
      pz      :     0.965442  p :     2.830145
      px      :     0.954903
      py      :     0.909800
      dz2     :     0.025098  d :     0.126985
      dxz     :     0.027090
      dyz     :     0.026601
      dx2y2   :     0.022918
      dxy     :     0.025278
      f0      :     0.001514  f :     0.007635
      f+1     :     0.001113
      f-1     :     0.001245
      f+2     :     0.000975
      f-2     :     0.000577
      f+3     :     0.001035
      f-3     :     0.001176
  3 C s       :     3.312725  s :     3.312725
      pz      :     0.925143  p :     2.933264
      px      :     0.940597
      py      :     1.067524
      dz2     :     0.014599  d :     0.076170
      dxz     :     0.021950
      dyz     :     0.016616
      dx2y2   :     0.011963
      dxy     :     0.011042
      f0      :     0.001336  f :     0.005942
      f+1     :     0.001196
      f-1     :     0.000811
      f+2     :     0.000588
      f-2     :     0.000413
      f+3     :     0.000747
      f-3     :     0.000853
  4 C s       :     2.812211  s :     2.812211
      pz      :     0.910220  p :     2.647946
      px      :     0.924443
      py      :     0.813283
      dz2     :     0.017953  d :     0.106921
      dxz     :     0.024580
      dyz     :     0.022287
      dx2y2   :     0.018442
      dxy     :     0.023658
      f0      :     0.001129  f :     0.006933
      f+1     :     0.001117
      f-1     :     0.000960
      f+2     :     0.000920
      f-2     :     0.000771
      f+3     :     0.000972
      f-3     :     0.001064
  5 C s       :     3.313038  s :     3.313038
      pz      :     0.941369  p :     2.934609
      px      :     0.927736
      py      :     1.065505
      dz2     :     0.015415  d :     0.076272
      dxz     :     0.023303
      dyz     :     0.010737
      dx2y2   :     0.010356
      dxy     :     0.016461
      f0      :     0.000911  f :     0.005949
      f+1     :     0.001071
      f-1     :     0.000790
      f+2     :     0.000923
      f-2     :     0.000724
      f+3     :     0.000924
      f-3     :     0.000605
  6 C s       :     3.341763  s :     3.341763
      pz      :     0.936537  p :     2.839404
      px      :     0.935612
      py      :     0.967255
      dz2     :     0.004180  d :     0.095226
      dxz     :     0.000668
      dyz     :     0.039536
      dx2y2   :     0.011431
      dxy     :     0.039412
      f0      :     0.002328  f :     0.015944
      f+1     :     0.000391
      f-1     :     0.001300
      f+2     :     0.003895
      f-2     :     0.000058
      f+3     :     0.005879
      f-3     :     0.002093
  7 N s       :     3.843520  s :     3.843520
      pz      :     1.048564  p :     3.234834
      px      :     1.050021
      py      :     1.136248
      dz2     :     0.001464  d :     0.039480
      dxz     :     0.000014
      dyz     :     0.016861
      dx2y2   :     0.004270
      dxy     :     0.016872
      f0      :     0.000352  f :     0.001949
      f+1     :     0.000058
      f-1     :     0.000027
      f+2     :     0.000589
      f-2     :     0.000003
      f+3     :     0.000887
      f-3     :     0.000032
  8 H s       :     0.809806  s :     0.809806
      pz      :     0.005726  p :     0.023052
      px      :     0.005334
      py      :     0.011991
  9 H s       :     0.838757  s :     0.838757
      pz      :     0.006874  p :     0.022441
      px      :     0.005932
      py      :     0.009635
 10 H s       :     0.829649  s :     0.829649
      pz      :     0.005163  p :     0.021852
      px      :     0.009737
      py      :     0.006952
 11 H s       :     0.835631  s :     0.835631
      pz      :     0.006883  p :     0.022199
      px      :     0.004264
      py      :     0.011051
 12 H s       :     0.837328  s :     0.837328
      pz      :     0.009724  p :     0.022398
      px      :     0.007862
      py      :     0.004813
 13 H s       :     0.836121  s :     0.836121
      pz      :     0.004248  p :     0.022194
      px      :     0.006684
      py      :     0.011262
 14 H s       :     0.829621  s :     0.829621
      pz      :     0.008704  p :     0.021842
      px      :     0.006461
      py      :     0.006677


                     *******************************
                     * LOEWDIN POPULATION ANALYSIS *
                     *******************************

----------------------
LOEWDIN ATOMIC CHARGES
----------------------
   0 C :   -0.095234
   1 C :   -0.137387
   2 C :   -0.262888
   3 C :   -0.189148
   4 C :   -0.246088
   5 C :   -0.189122
   6 C :   -0.183740
   7 N :    0.031284
   8 H :    0.156042
   9 H :    0.211425
  10 H :    0.171474
  11 H :    0.181064
  12 H :    0.199828
  13 H :    0.181018
  14 H :    0.171471

-------------------------------
LOEWDIN REDUCED ORBITAL CHARGES
-------------------------------
  0 C s       :     2.882190  s :     2.882190
      pz      :     0.975276  p :     3.041105
      px      :     0.965989
      py      :     1.099841
      dz2     :     0.017910  d :     0.134545
      dxz     :     0.009235
      dyz     :     0.037111
      dx2y2   :     0.035937
      dxy     :     0.034352
      f0      :     0.003665  f :     0.037393
      f+1     :     0.000913
      f-1     :     0.006279
      f+2     :     0.006287
      f-2     :     0.005415
      f+3     :     0.007863
      f-3     :     0.006971
  1 C s       :     2.798527  s :     2.798527
      pz      :     0.926940  p :     2.949353
      px      :     0.917167
      py      :     1.105246
      dz2     :     0.056026  d :     0.343482
      dxz     :     0.024060
      dyz     :     0.087654
      dx2y2   :     0.089078
      dxy     :     0.086663
      f0      :     0.004297  f :     0.046025
      f+1     :     0.001186
      f-1     :     0.008269
      f+2     :     0.007493
      f-2     :     0.006545
      f+3     :     0.009201
      f-3     :     0.009034
  2 C s       :     2.718217  s :     2.718217
      pz      :     0.987865  p :     2.986899
      px      :     0.988579
      py      :     1.010455
      dz2     :     0.101883  d :     0.504454
      dxz     :     0.089893
      dyz     :     0.116094
      dx2y2   :     0.095668
      dxy     :     0.100916
      f0      :     0.009746  f :     0.053317
      f+1     :     0.008146
      f-1     :     0.008197
      f+2     :     0.006530
      f-2     :     0.005933
      f+3     :     0.006618
      f-3     :     0.008148
  3 C s       :     2.783897  s :     2.783897
      pz      :     0.991399  p :     3.016352
      px      :     0.992066
      py      :     1.032887
      dz2     :     0.070385  d :     0.350238
      dxz     :     0.085013
      dyz     :     0.072374
      dx2y2   :     0.062819
      dxy     :     0.059647
      f0      :     0.007973  f :     0.038662
      f+1     :     0.009012
      f-1     :     0.004191
      f+2     :     0.005561
      f-2     :     0.002912
      f+3     :     0.004670
      f-3     :     0.004342
  4 C s       :     2.722043  s :     2.722043
      pz      :     0.997656  p :     2.988122
      px      :     0.998909
      py      :     0.991558
      dz2     :     0.086643  d :     0.483316
      dxz     :     0.101907
      dyz     :     0.090915
      dx2y2   :     0.110731
      dxy     :     0.093120
      f0      :     0.008582  f :     0.052607
      f+1     :     0.006128
      f-1     :     0.007768
      f+2     :     0.006573
      f-2     :     0.006619
      f+3     :     0.009058
      f-3     :     0.007881
  5 C s       :     2.783888  s :     2.783888
      pz      :     0.990408  p :     3.016312
      px      :     0.994094
      py      :     1.031810
      dz2     :     0.070634  d :     0.350258
      dxz     :     0.095318
      dyz     :     0.053099
      dx2y2   :     0.055620
      dxy     :     0.075588
      f0      :     0.006468  f :     0.038665
      f+1     :     0.008069
      f-1     :     0.004030
      f+2     :     0.006235
      f-2     :     0.003893
      f+3     :     0.005973
      f-3     :     0.003996
  6 C s       :     2.807971  s :     2.807971
      pz      :     0.843691  p :     2.878336
      px      :     0.844104
      py      :     1.190541
      dz2     :     0.041745  d :     0.438549
      dxz     :     0.001268
      dyz     :     0.136266
      dx2y2   :     0.122460
      dxy     :     0.136809
      f0      :     0.006318  f :     0.058883
      f+1     :     0.001073
      f-1     :     0.009386
      f+2     :     0.010629
      f-2     :     0.000093
      f+3     :     0.015824
      f-3     :     0.015560
  7 N s       :     3.301284  s :     3.301284
      pz      :     1.024317  p :     3.541968
      px      :     1.024495
      py      :     1.493156
      dz2     :     0.011836  d :     0.109689
      dxz     :     0.000032
      dyz     :     0.031251
      dx2y2   :     0.035404
      dxy     :     0.031166
      f0      :     0.001665  f :     0.015774
      f+1     :     0.000274
      f-1     :     0.002586
      f+2     :     0.002787
      f-2     :     0.000012
      f+3     :     0.004158
      f-3     :     0.004291
  8 H s       :     0.773723  s :     0.773723
      pz      :     0.017917  p :     0.070235
      px      :     0.016784
      py      :     0.035534
  9 H s       :     0.729437  s :     0.729437
      pz      :     0.018034  p :     0.059138
      px      :     0.016061
      py      :     0.025044
 10 H s       :     0.765644  s :     0.765644
      pz      :     0.014747  p :     0.062881
      px      :     0.026721
      py      :     0.021413
 11 H s       :     0.756712  s :     0.756712
      pz      :     0.018384  p :     0.062224
      px      :     0.012446
      py      :     0.031394
 12 H s       :     0.740233  s :     0.740233
      pz      :     0.025753  p :     0.059939
      px      :     0.021259
      py      :     0.012928
 13 H s       :     0.756754  s :     0.756754
      pz      :     0.012832  p :     0.062228
      px      :     0.017588
      py      :     0.031809
 14 H s       :     0.765640  s :     0.765640
      pz      :     0.024355  p :     0.062889
      px      :     0.017915
      py      :     0.020619


                      *****************************
                      * MAYER POPULATION ANALYSIS *
                      *****************************

  NA   - Mulliken gross atomic population
  ZA   - Total nuclear charge
  QA   - Mulliken gross atomic charge
  VA   - Mayer's total valence
  BVA  - Mayer's bonded valence
  FA   - Mayer's free valence

  ATOM       NA         ZA         QA         VA         BVA        FA
  0 C      5.9415     6.0000     0.0585     3.1221     3.1221     0.0000
  1 C      6.0133     6.0000    -0.0133     3.2802     3.2802    -0.0000
  2 C      6.4282     6.0000    -0.4282     4.5045     4.5045     0.0000
  3 C      6.3281     6.0000    -0.3281     4.0821     4.0821    -0.0000
  4 C      5.5740     6.0000     0.4260     3.3940     3.3940     0.0000
  5 C      6.3299     6.0000    -0.3299     4.0878     4.0878    -0.0000
  6 C      6.2923     6.0000    -0.2923     3.9213     3.9213     0.0000
  7 N      7.1198     7.0000    -0.1198     2.7796     2.7796     0.0000
  8 H      0.8329     1.0000     0.1671     0.9642     0.9642     0.0000
  9 H      0.8612     1.0000     0.1388     0.9462     0.9462     0.0000
 10 H      0.8515     1.0000     0.1485     0.9662     0.9662    -0.0000
 11 H      0.8578     1.0000     0.1422     0.9719     0.9719     0.0000
 12 H      0.8597     1.0000     0.1403     0.9511     0.9511     0.0000
 13 H      0.8583     1.0000     0.1417     0.9722     0.9722     0.0000
 14 H      0.8515     1.0000     0.1485     0.9663     0.9663    -0.0000

  Mayer bond orders larger than 0.1
B(  0-C ,  1-C ) :   2.1157 B(  0-C ,  2-C ) :  -0.1963 B(  0-C ,  8-H ) :   1.0881 
B(  1-C ,  2-C ) :   1.4270 B(  1-C ,  8-H ) :  -0.1113 B(  2-C ,  3-C ) :   1.1697 
B(  2-C ,  4-C ) :  -0.1305 B(  2-C ,  5-C ) :   1.1817 B(  2-C ,  9-H ) :   0.9426 
B(  3-C ,  4-C ) :   0.8674 B(  3-C , 10-H ) :   0.9428 B(  3-C , 11-H ) :   0.9771 
B(  4-C ,  5-C ) :   0.8575 B(  4-C ,  6-C ) :   1.0375 B(  4-C , 12-H ) :   0.9281 
B(  5-C , 13-H ) :   0.9774 B(  5-C , 14-H ) :   0.9435 B(  6-C ,  7-N ) :   2.6803 


-------
TIMINGS
-------

Total SCF time: 0 days 0 hours 1 min 2 sec 

Total time                  ....      62.494 sec
Sum of individual times     ....      61.845 sec  ( 99.0%)

Fock matrix formation       ....      56.339 sec  ( 90.2%)
  Split-RI-J                ....      11.071 sec  ( 19.7% of F)
  Chain of spheres X        ....      32.591 sec  ( 57.8% of F)
  COS-X 1 center corr.      ....       0.000 sec  (  0.0% of F)
  XC integration            ....      11.269 sec  ( 20.0% of F)
    Basis function eval.    ....       3.332 sec  ( 29.6% of XC)
    Density eval.           ....       2.660 sec  ( 23.6% of XC)
    XC-Functional eval.     ....       0.253 sec  (  2.2% of XC)
    XC-Potential eval.      ....       3.778 sec  ( 33.5% of XC)
Diagonalization             ....       0.788 sec  (  1.3%)
Density matrix formation    ....       0.033 sec  (  0.1%)
Population analysis         ....       0.115 sec  (  0.2%)
Initial guess               ....       1.089 sec  (  1.7%)
Orbital Transformation      ....       0.000 sec  (  0.0%)
Orbital Orthonormalization  ....       0.000 sec  (  0.0%)
DIIS solution               ....       0.470 sec  (  0.8%)
SOSCF solution              ....       0.440 sec  (  0.7%)
Grid generation             ....       2.571 sec  (  4.1%)


           ************************************************************
           *        Program running with 12 parallel MPI-processes    *
           *              working on a common directory               *
           ************************************************************
------------------------------------------------------------------------------
                        ORCA TD-DFT/TDA CALCULATION
------------------------------------------------------------------------------

Input orbitals are from        ... 10777.gbw
CI-vector output               ... 10777.cis
Tamm-Dancoff approximation     ... operative
CIS-Integral strategy          ... AO-integrals
Integral handling              ... AO integral Direct
Max. core memory used          ... 512 MB
Reference state                ... RHF
Generation of triplets         ... off
Number of operators            ... 1
Orbital ranges used for CIS calculation:
 Operator 0:  Orbitals   8... 27  to  28...321
XAS localization array:
 Operator 0:  Orbitals  -1... -1
-------------------
XC-INTEGRATION GRID
-------------------

General Integration Accuracy     IntAcc      ...  3.670
Radial Grid Type                 RadialGrid  ... Gauss-Chebyshev
Angular Grid (max. acc.)         AngularGrid ... Lebedev-50
Angular grid pruning method      GridPruning ... 3 (G Style)
Weight generation scheme         WeightScheme... Becke
Basis function cutoff            BFCut       ...    1.0000e-11
Integration weight cutoff        WCut        ...    1.0000e-14
Grids for H and He will be reduced by one unit

# of grid points (after initial pruning)     ...   8700 (   0.0 sec)
# of grid points (after weights+screening)   ...   8138 (   0.0 sec)
nearest neighbour list constructed           ...    0.0 sec
Grid point re-assignment to atoms done       ...    0.0 sec
Grid point division into batches done        ...    0.0 sec
Reduced shell lists constructed in    0.0 sec

Total number of grid points                  ...     8138
Total number of batches                      ...      134
Average number of points per batch           ...       60
Average number of grid points per atom       ...      543
Average number of shells per batch           ...    87.23 (66.08%)
Average number of basis functions per batch  ...   211.08 (65.55%)
Average number of large shells per batch     ...    69.38 (79.54%)
Average number of large basis fcns per batch ...   164.46 (77.92%)
Maximum spatial batch extension              ...   8.63,  6.22, 13.07 au
Average spatial batch extension              ...   0.36,  0.27,  0.38 au

---------------------
COSX-INTEGRATION GRID
---------------------

General Integration Accuracy     IntAcc      ...  2.670
Radial Grid Type                 RadialGrid  ... Gauss-Chebyshev
Angular Grid (max. acc.)         AngularGrid ... Lebedev-50
Angular grid pruning method      GridPruning ... 3 (G Style)
Weight generation scheme         WeightScheme... Becke
Basis function cutoff            BFCut       ...    1.0000e-11
Integration weight cutoff        WCut        ...    1.0000e-14
Grids for H and He will be reduced by one unit

# of grid points (after initial pruning)     ...   4998 (   0.0 sec)
# of grid points (after weights+screening)   ...   4685 (   0.0 sec)
nearest neighbour list constructed           ...    0.0 sec
Grid point re-assignment to atoms done       ...    0.0 sec
Grid point division into batches done        ...    0.0 sec
Reduced shell lists constructed in    0.0 sec

Total number of grid points                  ...     4685
Total number of batches                      ...       80
Average number of points per batch           ...       58
Average number of grid points per atom       ...      312
Average number of shells per batch           ...    85.12 (64.49%)
Average number of basis functions per batch  ...   206.12 (64.01%)
Average number of large shells per batch     ...    68.38 (80.32%)
Average number of large basis fcns per batch ...   160.88 (78.05%)
Maximum spatial batch extension              ...   9.39,  6.22, 14.09 au
Average spatial batch extension              ...   0.51,  0.34,  0.50 au


---------------
TD-DFT XC SETUP
---------------

DFT calculation                         ... on
Name of the grid file                   ... 10777.grid_cis.tmp
Exchange functional (SCF)               ... PBE
Exchange functional (TD-DFT)            ... PBE
   PBE kappa parameter  XKappa (SCF)    ...  0.804000
   PBE kappa parameter  XKappa (TD-DFT) ...  0.804000
   PBE mue parameter   XMuePBE (SCF)    ...  0.219520
   PBE mue parameter   XMuePBE (TD-DFT) ...  0.219520
Correlation functional (SCF)            ... PBE
Correlation functional (TD-DFT)         ... PBE
   PBE beta parameter CBetaPBE (SCF)    ...  0.066725
   PBE beta parameter CBetaPBE (TD-DFT) ...  0.066725
 LDA part of GGA corr.  LDAOpt (SCF)    ... PW91-LDA
 LDA part of GGA corr.  LDAOpt (TD-DFT) ... PW91-LDA
Hybrid DFT                              ... on
   Exchange mixing (SCF)                ...  0.250
   Exchange mixing (TD-DFT)             ...  0.250
   GGA exch. scaling(SCF)               ...  0.750
   GGA exch. scaling (TD-DFT)           ...  0.750
   GGA corr. scaling (SCF)              ...  1.000
   GGA corr. scaling (TD-DFT)           ...  1.000

Building densities             ... done
Calculating rho(r) on the grid ... done
Building xc-kernel on the grid ... done
                    *** TD-DFT CALCULATION INITIALIZED ***


------------------------
DAVIDSON-DIAGONALIZATION
------------------------

Dimension of the eigenvalue problem            ...   5880
Number of roots to be determined               ...     50
Maximum size of the expansion space            ...   5880
Convergence tolerance for the residual         ...    2.500e-07
Convergence tolerance for the energies         ...    2.500e-07
Orthogonality tolerance                        ...    1.000e-14
Level Shift                                    ...    0.000e+00
Constructing the preconditioner                ... o.k.
Building the initial guess                     ... o.k.
Number of trial vectors determined             ...    512


                       ****Iteration    0****

   Memory handling for direct AO based CIS:
   Memory per vector needed      ...     4 MB
   Memory needed                 ...   620 MB
   Memory available              ...   512 MB
   Number of vectors per batch   ...   123
   Number of batches             ...     2
   Time for densities:     1.665
   Time for RI-J (Direct):    49.545
   Time for K (COSX):     8.131
   Time for XC-Integration:    10.678
   Time for Sigma-Completion:     3.494
   Time for densities:     0.382
   Time for RI-J (Direct):    10.773
   Time for K (COSX):     3.368
   Time for XC-Integration:     2.353
   Time for Sigma-Completion:     0.766
   Size of expansion space: 150
   Lowest Energy          :     0.234453215607
   Maximum Energy change  :     0.344557158229 (vector 49)
   Maximum residual norm  :     0.002828827842

                       ****Iteration    1****
   Time for densities:     0.727
   Time for RI-J (Direct):    20.286
   Time for K (COSX):     4.501
   Time for XC-Integration:     4.447
   Time for Sigma-Completion:     1.490
   Size of expansion space: 200
   Lowest Energy          :     0.232879150783
   Maximum Energy change  :     0.003270416964 (vector 25)
   Maximum residual norm  :     0.000089606265

                       ****Iteration    2****
   Time for densities:     0.710
   Time for RI-J (Direct):    20.514
   Time for K (COSX):     4.491
   Time for XC-Integration:     4.433
   Time for Sigma-Completion:     1.490
   Size of expansion space: 250
   Lowest Energy          :     0.232868679938
   Maximum Energy change  :     0.000199572079 (vector 45)
   Maximum residual norm  :     0.000005118987

                       ****Iteration    3****
   Time for densities:     0.700
   Time for RI-J (Direct):    20.536
   Time for K (COSX):     4.483
   Time for XC-Integration:     4.472
   Time for Sigma-Completion:     1.420
   Size of expansion space: 300
   Lowest Energy          :     0.232868643124
   Maximum Energy change  :     0.000013790817 (vector 48)
   Maximum residual norm  :     0.000000160227

      *** CONVERGENCE OF RESIDUAL NORM REACHED ***

Storing the converged CI vectors               ... 10777.cis1

                 *** DAVIDSON DONE ***

Total time for solving the CIS problem:   469.498sec

------------------------------------
TD-DFT/TDA EXCITED STATES (SINGLETS)
------------------------------------

the weight of the individual excitations are printed if larger than 0.01

STATE  1:  E=   0.232869 au      6.337 eV    51108.8 cm**-1
    26a ->  28a  :     0.019269 (c=  0.13881371)
    26a ->  30a  :     0.012708 (c=  0.11272927)
    26a ->  32a  :     0.022313 (c=  0.14937592)
    26a ->  34a  :     0.016641 (c=  0.12899897)
    27a ->  29a  :     0.685330 (c=  0.82784666)
    27a ->  33a  :     0.142279 (c= -0.37719948)
    27a ->  35a  :     0.014337 (c=  0.11973692)
    27a ->  40a  :     0.024160 (c= -0.15543560)

STATE  2:  E=   0.241603 au      6.574 eV    53025.7 cm**-1
    26a ->  29a  :     0.388875 (c= -0.62359818)
    26a ->  33a  :     0.071651 (c=  0.26767629)
    27a ->  28a  :     0.228040 (c= -0.47753503)
    27a ->  30a  :     0.054892 (c= -0.23428945)
    27a ->  31a  :     0.022093 (c=  0.14863668)
    27a ->  32a  :     0.094418 (c= -0.30727564)
    27a ->  34a  :     0.056809 (c= -0.23834536)
    27a ->  36a  :     0.028722 (c=  0.16947516)

STATE  3:  E=   0.243261 au      6.619 eV    53389.6 cm**-1
    26a ->  28a  :     0.409111 (c=  0.63961796)
    26a ->  30a  :     0.112212 (c=  0.33498025)
    26a ->  31a  :     0.031906 (c= -0.17862299)
    26a ->  32a  :     0.166854 (c=  0.40847800)
    26a ->  34a  :     0.099764 (c=  0.31585487)
    26a ->  36a  :     0.050422 (c= -0.22454838)
    27a ->  29a  :     0.078313 (c= -0.27984482)

STATE  4:  E=   0.252877 au      6.881 eV    55500.0 cm**-1
    26a ->  29a  :     0.062049 (c= -0.24909569)
    26a ->  33a  :     0.015189 (c=  0.12324312)
    27a ->  28a  :     0.658429 (c=  0.81143617)
    27a ->  31a  :     0.175058 (c=  0.41839918)
    27a ->  32a  :     0.019676 (c= -0.14027149)
    27a ->  34a  :     0.029202 (c= -0.17088558)

STATE  5:  E=   0.254173 au      6.916 eV    55784.4 cm**-1
    26a ->  28a  :     0.483089 (c=  0.69504603)
    26a ->  30a  :     0.075755 (c= -0.27523586)
    26a ->  31a  :     0.254201 (c=  0.50418323)
    26a ->  32a  :     0.064417 (c= -0.25380590)
    26a ->  34a  :     0.073462 (c= -0.27103818)
    26a ->  36a  :     0.019297 (c=  0.13891453)

STATE  6:  E=   0.267086 au      7.268 eV    58618.5 cm**-1
    27a ->  28a  :     0.033703 (c=  0.18358412)
    27a ->  30a  :     0.651261 (c= -0.80700751)
    27a ->  31a  :     0.270330 (c= -0.51993272)

STATE  7:  E=   0.267869 au      7.289 eV    58790.5 cm**-1
    26a ->  28a  :     0.030913 (c= -0.17582186)
    26a ->  30a  :     0.545669 (c=  0.73869403)
    26a ->  31a  :     0.388618 (c=  0.62339236)
    26a ->  37a  :     0.010479 (c= -0.10236826)

STATE  8:  E=   0.270711 au      7.366 eV    59414.1 cm**-1
    24a ->  29a  :     0.219976 (c= -0.46901575)
    24a ->  35a  :     0.075833 (c=  0.27537867)
    25a ->  28a  :     0.170096 (c=  0.41242755)
    25a ->  30a  :     0.025095 (c= -0.15841334)
    25a ->  32a  :     0.116713 (c=  0.34163296)
    25a ->  36a  :     0.033521 (c=  0.18308606)
    25a ->  38a  :     0.013058 (c=  0.11427253)
    26a ->  32a  :     0.010510 (c=  0.10251751)
    27a ->  29a  :     0.049717 (c=  0.22297237)
    27a ->  33a  :     0.153617 (c=  0.39194058)
    27a ->  35a  :     0.057557 (c= -0.23991031)

STATE  9:  E=   0.272748 au      7.422 eV    59861.2 cm**-1
    24a ->  28a  :     0.010719 (c= -0.10353395)
    26a ->  29a  :     0.147251 (c= -0.38373235)
    26a ->  33a  :     0.021670 (c= -0.14720694)
    27a ->  28a  :     0.049224 (c=  0.22186397)
    27a ->  30a  :     0.195933 (c=  0.44264326)
    27a ->  31a  :     0.463979 (c= -0.68115981)
    27a ->  32a  :     0.015448 (c= -0.12429021)
    27a ->  34a  :     0.055678 (c= -0.23596243)

STATE 10:  E=   0.276330 au      7.519 eV    60647.3 cm**-1
    24a ->  29a  :     0.027786 (c= -0.16669163)
    25a ->  28a  :     0.168925 (c= -0.41100512)
    25a ->  30a  :     0.014908 (c=  0.12209911)
    25a ->  32a  :     0.072207 (c= -0.26871396)
    25a ->  36a  :     0.017288 (c= -0.13148338)
    26a ->  28a  :     0.021369 (c=  0.14618295)
    26a ->  30a  :     0.076375 (c=  0.27635956)
    26a ->  31a  :     0.143049 (c= -0.37821847)
    26a ->  32a  :     0.066001 (c= -0.25690611)
    26a ->  34a  :     0.081253 (c= -0.28504826)
    27a ->  29a  :     0.058527 (c=  0.24192320)
    27a ->  33a  :     0.185168 (c=  0.43031153)
    27a ->  35a  :     0.016690 (c= -0.12918941)

STATE 11:  E=   0.277742 au      7.558 eV    60957.3 cm**-1
    24a ->  29a  :     0.013151 (c=  0.11467729)
    25a ->  28a  :     0.130837 (c=  0.36171398)
    25a ->  32a  :     0.041056 (c=  0.20262206)
    25a ->  36a  :     0.012966 (c=  0.11386633)
    26a ->  28a  :     0.015604 (c=  0.12491767)
    26a ->  30a  :     0.150369 (c=  0.38777471)
    26a ->  31a  :     0.140992 (c= -0.37548861)
    26a ->  32a  :     0.079556 (c= -0.28205644)
    26a ->  34a  :     0.186072 (c= -0.43136014)
    26a ->  36a  :     0.010440 (c=  0.10217846)
    27a ->  29a  :     0.028261 (c= -0.16811099)
    27a ->  33a  :     0.134949 (c= -0.36735402)

STATE 12:  E=   0.279803 au      7.614 eV    61409.7 cm**-1
    25a ->  29a  :     0.030642 (c=  0.17504983)
    26a ->  29a  :     0.233603 (c= -0.48332515)
    26a ->  33a  :     0.436299 (c= -0.66052905)
    26a ->  35a  :     0.020151 (c=  0.14195365)
    27a ->  30a  :     0.034597 (c= -0.18600195)
    27a ->  31a  :     0.019245 (c=  0.13872552)
    27a ->  32a  :     0.083855 (c=  0.28957813)
    27a ->  34a  :     0.098202 (c=  0.31337171)

STATE 13:  E=   0.280873 au      7.643 eV    61644.4 cm**-1
    24a ->  28a  :     0.084330 (c= -0.29039665)
    24a ->  30a  :     0.010351 (c=  0.10174213)
    24a ->  32a  :     0.077412 (c= -0.27822954)
    24a ->  36a  :     0.017494 (c= -0.13226667)
    25a ->  29a  :     0.238949 (c=  0.48882447)
    25a ->  35a  :     0.058872 (c= -0.24263466)
    26a ->  33a  :     0.018855 (c=  0.13731416)
    27a ->  32a  :     0.228271 (c=  0.47777720)
    27a ->  34a  :     0.165539 (c= -0.40686510)
    27a ->  36a  :     0.022816 (c=  0.15105019)

STATE 14:  E=   0.285190 au      7.760 eV    62591.9 cm**-1
    24a ->  29a  :     0.234243 (c=  0.48398708)
    24a ->  35a  :     0.078929 (c= -0.28094356)
    25a ->  28a  :     0.100611 (c=  0.31719234)
    26a ->  32a  :     0.124122 (c= -0.35230981)
    26a ->  34a  :     0.103250 (c=  0.32132556)
    27a ->  29a  :     0.034052 (c=  0.18453125)
    27a ->  33a  :     0.240435 (c=  0.49034163)
    27a ->  35a  :     0.021593 (c=  0.14694636)

STATE 15:  E=   0.285479 au      7.768 eV    62655.3 cm**-1
    24a ->  29a  :     0.103189 (c= -0.32123021)
    24a ->  35a  :     0.033150 (c=  0.18207101)
    26a ->  32a  :     0.374132 (c= -0.61166295)
    26a ->  34a  :     0.341382 (c=  0.58427875)
    27a ->  29a  :     0.010903 (c= -0.10441541)
    27a ->  33a  :     0.076007 (c= -0.27569306)
    27a ->  35a  :     0.010342 (c= -0.10169456)

STATE 16:  E=   0.287385 au      7.820 eV    63073.7 cm**-1
    24a ->  28a  :     0.160869 (c=  0.40108431)
    24a ->  32a  :     0.033367 (c=  0.18266575)
    25a ->  29a  :     0.115214 (c= -0.33943159)
    25a ->  35a  :     0.017312 (c=  0.13157519)
    27a ->  30a  :     0.014412 (c= -0.12004879)
    27a ->  32a  :     0.229518 (c=  0.47908080)
    27a ->  34a  :     0.312028 (c= -0.55859464)
    27a ->  36a  :     0.024071 (c= -0.15514688)
    27a ->  37a  :     0.011802 (c= -0.10863804)
    27a ->  41a  :     0.012563 (c=  0.11208411)

STATE 17:  E=   0.296532 au      8.069 eV    65081.2 cm**-1
    22a ->  32a  :     0.010245 (c= -0.10121579)
    24a ->  29a  :     0.014703 (c=  0.12125532)
    25a ->  28a  :     0.312748 (c= -0.55923874)
    25a ->  30a  :     0.210055 (c= -0.45831743)
    25a ->  31a  :     0.121652 (c=  0.34878677)
    25a ->  32a  :     0.235589 (c=  0.48537544)
    25a ->  36a  :     0.017433 (c=  0.13203370)
    25a ->  38a  :     0.013902 (c=  0.11790483)

STATE 18:  E=   0.298178 au      8.114 eV    65442.6 cm**-1
    24a ->  28a  :     0.031655 (c= -0.17791763)
    26a ->  29a  :     0.019371 (c=  0.13917883)
    26a ->  33a  :     0.191429 (c= -0.43752610)
    26a ->  35a  :     0.101229 (c= -0.31816467)
    26a ->  39a  :     0.011759 (c=  0.10843849)
    26a ->  40a  :     0.030852 (c=  0.17564790)
    27a ->  32a  :     0.160955 (c= -0.40119227)
    27a ->  34a  :     0.132953 (c= -0.36462672)
    27a ->  36a  :     0.229044 (c= -0.47858548)
    27a ->  41a  :     0.021230 (c=  0.14570579)

STATE 19:  E=   0.301373 au      8.201 eV    66143.7 cm**-1
    26a ->  32a  :     0.054256 (c= -0.23292904)
    26a ->  34a  :     0.055799 (c= -0.23621744)
    26a ->  36a  :     0.768722 (c= -0.87676771)
    26a ->  41a  :     0.056702 (c=  0.23812251)

STATE 20:  E=   0.301960 au      8.217 eV    66272.6 cm**-1
    24a ->  28a  :     0.167931 (c= -0.40979410)
    24a ->  30a  :     0.019464 (c= -0.13951180)
    24a ->  31a  :     0.035342 (c=  0.18799418)
    24a ->  32a  :     0.034719 (c=  0.18632956)
    25a ->  29a  :     0.159691 (c= -0.39961304)
    26a ->  33a  :     0.024600 (c= -0.15684357)
    26a ->  35a  :     0.286861 (c= -0.53559372)
    26a ->  39a  :     0.010691 (c=  0.10339493)
    26a ->  40a  :     0.018240 (c=  0.13505519)
    27a ->  32a  :     0.050996 (c=  0.22582403)
    27a ->  36a  :     0.130596 (c=  0.36138045)

STATE 21:  E=   0.302808 au      8.240 eV    66458.6 cm**-1
    24a ->  28a  :     0.406260 (c= -0.63738560)
    24a ->  30a  :     0.022786 (c= -0.15095108)
    24a ->  31a  :     0.042918 (c=  0.20716545)
    24a ->  32a  :     0.040198 (c=  0.20049496)
    25a ->  29a  :     0.024644 (c= -0.15698282)
    26a ->  33a  :     0.020362 (c=  0.14269403)
    26a ->  35a  :     0.264586 (c=  0.51437905)
    27a ->  31a  :     0.011231 (c=  0.10597496)
    27a ->  36a  :     0.097742 (c= -0.31263770)
    27a ->  41a  :     0.012058 (c=  0.10980924)

STATE 22:  E=   0.304147 au      8.276 eV    66752.6 cm**-1
    24a ->  29a  :     0.123786 (c=  0.35183250)
    27a ->  33a  :     0.021713 (c= -0.14735371)
    27a ->  35a  :     0.797414 (c= -0.89298041)
    27a ->  39a  :     0.013074 (c=  0.11434034)
    27a ->  40a  :     0.011129 (c=  0.10549310)

STATE 23:  E=   0.308981 au      8.408 eV    67813.6 cm**-1
    25a ->  30a  :     0.682323 (c=  0.82602846)
[...]
    21a ->  28a  :     0.084999 (c=  0.29154558)
    21a ->  32a  :     0.016297 (c=  0.12766060)
    22a ->  29a  :     0.010778 (c=  0.10381696)
    23a ->  30a  :     0.023096 (c=  0.15197281)
    23a ->  32a  :     0.019005 (c= -0.13786028)
    24a ->  32a  :     0.061867 (c=  0.24873045)
    24a ->  34a  :     0.044677 (c=  0.21136880)
    24a ->  36a  :     0.017062 (c= -0.13062033)
    25a ->  33a  :     0.038196 (c=  0.19543746)
    25a ->  35a  :     0.020477 (c= -0.14309834)
    26a ->  39a  :     0.011001 (c= -0.10488565)
    26a ->  40a  :     0.077316 (c= -0.27805777)
    26a ->  43a  :     0.024444 (c= -0.15634665)
    27a ->  34a  :     0.010951 (c= -0.10464918)
    27a ->  37a  :     0.034095 (c= -0.18464794)
    27a ->  38a  :     0.016364 (c= -0.12792101)
    27a ->  41a  :     0.352378 (c= -0.59361472)
    27a ->  44a  :     0.049093 (c= -0.22156859)
    27a ->  49a  :     0.013047 (c= -0.11422135)

STATE 44:  E=   0.336340 au      9.152 eV    73818.0 cm**-1
    22a ->  28a  :     0.237117 (c=  0.48694708)
    22a ->  34a  :     0.014308 (c= -0.11961701)
    25a ->  28a  :     0.012594 (c= -0.11222165)
    25a ->  31a  :     0.061176 (c= -0.24733704)
    25a ->  32a  :     0.018103 (c= -0.13454887)
    25a ->  34a  :     0.477894 (c= -0.69129909)
    25a ->  36a  :     0.118745 (c=  0.34459438)
    26a ->  41a  :     0.016658 (c= -0.12906516)

STATE 45:  E=   0.338378 au      9.208 eV    74265.4 cm**-1
    21a ->  28a  :     0.074509 (c= -0.27296380)
    21a ->  32a  :     0.013609 (c= -0.11665558)
    22a ->  29a  :     0.211810 (c= -0.46022864)
    23a ->  28a  :     0.010615 (c= -0.10302673)
    23a ->  30a  :     0.137735 (c= -0.37112669)
    23a ->  31a  :     0.031021 (c=  0.17612722)
    23a ->  32a  :     0.106799 (c=  0.32680137)
    24a ->  32a  :     0.011598 (c= -0.10769416)
    25a ->  35a  :     0.046993 (c=  0.21677809)
    26a ->  40a  :     0.123556 (c= -0.35150534)
    26a ->  43a  :     0.020083 (c= -0.14171479)
    27a ->  41a  :     0.039727 (c= -0.19931547)
    27a ->  42a  :     0.011987 (c=  0.10948454)
    27a ->  44a  :     0.054098 (c= -0.23259076)

STATE 46:  E=   0.340134 au      9.256 eV    74650.7 cm**-1
    21a ->  28a  :     0.140306 (c=  0.37457430)
    21a ->  32a  :     0.011101 (c=  0.10535942)
    22a ->  29a  :     0.414440 (c= -0.64376992)
    23a ->  28a  :     0.025019 (c=  0.15817289)
    23a ->  30a  :     0.056669 (c=  0.23805335)
    23a ->  32a  :     0.077221 (c= -0.27788709)
    23a ->  36a  :     0.011459 (c= -0.10704837)
    24a ->  34a  :     0.011754 (c= -0.10841542)
    25a ->  35a  :     0.126825 (c=  0.35612514)
    27a ->  44a  :     0.017093 (c=  0.13074203)

STATE 47:  E=   0.340667 au      9.270 eV    74767.7 cm**-1
    21a ->  29a  :     0.050384 (c=  0.22446409)
    24a ->  29a  :     0.016926 (c= -0.13010115)
    24a ->  33a  :     0.645119 (c= -0.80319320)
    24a ->  35a  :     0.205445 (c= -0.45326052)
    24a ->  40a  :     0.010277 (c= -0.10137765)

STATE 48:  E=   0.341165 au      9.284 eV    74877.1 cm**-1
    21a ->  28a  :     0.275680 (c=  0.52505249)
    21a ->  31a  :     0.010878 (c= -0.10429727)
    23a ->  28a  :     0.014758 (c= -0.12148411)
    23a ->  30a  :     0.230326 (c= -0.47992343)
    23a ->  31a  :     0.073802 (c=  0.27166457)
    23a ->  32a  :     0.079896 (c=  0.28265935)
    24a ->  32a  :     0.069661 (c=  0.26393424)
    24a ->  34a  :     0.032896 (c=  0.18137258)
    24a ->  36a  :     0.037164 (c= -0.19277957)
    26a ->  40a  :     0.016509 (c=  0.12848586)
    26a ->  43a  :     0.035913 (c=  0.18950791)
    27a ->  42a  :     0.011837 (c= -0.10879978)
    27a ->  44a  :     0.022682 (c=  0.15060654)

STATE 49:  E=   0.343251 au      9.340 eV    75334.8 cm**-1
    21a ->  29a  :     0.158188 (c= -0.39772831)
    22a ->  30a  :     0.017131 (c= -0.13088643)
    23a ->  35a  :     0.014008 (c= -0.11835663)
    24a ->  33a  :     0.030448 (c= -0.17449362)
    25a ->  36a  :     0.010165 (c=  0.10082305)
    27a ->  39a  :     0.017300 (c= -0.13152895)
    27a ->  40a  :     0.031969 (c= -0.17879876)
    27a ->  43a  :     0.639995 (c= -0.79999657)

STATE 50:  E=   0.343806 au      9.355 eV    75456.7 cm**-1
    22a ->  28a  :     0.070221 (c=  0.26499286)
    22a ->  30a  :     0.016169 (c=  0.12715785)
    24a ->  33a  :     0.011499 (c=  0.10723362)
    25a ->  31a  :     0.040435 (c=  0.20108387)
    25a ->  32a  :     0.045077 (c= -0.21231228)
    25a ->  34a  :     0.264198 (c=  0.51400166)
    25a ->  36a  :     0.482534 (c=  0.69464667)
    25a ->  37a  :     0.011273 (c= -0.10617642)
    25a ->  38a  :     0.012517 (c=  0.11187922)


-----------------------------
TD-DFT/TDA-EXCITATION SPECTRA
-----------------------------

Center of mass = (  1.4044,  3.4935,  1.6198)
Calculating the Dipole integrals                  ... done
Transforming integrals                            ... done
Calculating the Linear Momentum integrals         ... done
Transforming integrals                            ... done
Calculating angular momentum integrals            ... done
Transforming integrals                            ... done

-----------------------------------------------------------------------------
         ABSORPTION SPECTRUM VIA TRANSITION ELECTRIC DIPOLE MOMENTS
-----------------------------------------------------------------------------
State   Energy  Wavelength   fosc         T2         TX        TY        TZ  
        (cm-1)    (nm)                  (au**2)     (au)      (au)      (au) 
-----------------------------------------------------------------------------
   1   51108.8    195.7   0.000000104   0.00000  -0.00077  -0.00004   0.00028
   2   53025.7    188.6   0.005901285   0.03664   0.08271   0.14393   0.09530
   3   53389.6    187.3   0.009627671   0.05937  -0.18879   0.00499   0.15394
   4   55500.0    180.2   0.042909413   0.25453   0.31497   0.02862   0.39306
   5   55784.4    179.3   0.031233549   0.18432  -0.33603   0.00638   0.26714
   6   58618.5    170.6   0.006480141   0.03639  -0.12069  -0.02237  -0.14603
   7   58790.5    170.1   0.013442052   0.07527  -0.21311   0.00182   0.17278
   8   59414.1    168.3   0.001003600   0.00556   0.05773  -0.00175  -0.04717
   9   59861.2    167.1   0.067185914   0.36950   0.12431   0.57824   0.14029
  10   60647.3    164.9   0.003016968   0.01638  -0.10025   0.00055   0.07955
  11   60957.3    164.0   0.001130746   0.00611   0.06014  -0.00154  -0.04987
  12   61409.7    162.8   0.020704206   0.11099   0.16842   0.20048   0.20600
  13   61644.4    162.2   0.006620477   0.03536  -0.11508   0.04112  -0.14291
  14   62591.9    159.8   0.003649045   0.01919   0.10845  -0.00122  -0.08620
  15   62655.3    159.6   0.003931488   0.02066  -0.11404  -0.00170   0.08746
  16   63073.7    158.5   0.008682665   0.04532   0.10537   0.13515   0.12629
  17   65081.2    153.7   0.025994170   0.13149  -0.28024   0.00884   0.22995
  18   65442.6    152.8   0.199878403   1.00550  -0.29942  -0.89478  -0.33942
  19   66143.7    151.2   0.024669025   0.12278  -0.27040   0.00280   0.22284
  20   66272.6    150.9   0.028126292   0.13972   0.03178   0.37024   0.04036
  21   66458.6    150.5   0.019674121   0.09746   0.14068   0.22407   0.16571
  22   66752.6    149.8   0.000111213   0.00055  -0.01578   0.00385   0.01687
  23   67813.6    147.5   0.006797044   0.03300   0.14275   0.00177  -0.11232
  24   68154.8    146.7   0.011350137   0.05483   0.15346  -0.03593  -0.17316
  25   68267.4    146.5   0.167848506   0.80943   0.40663   0.65092   0.46946
  26   68381.3    146.2   0.027363698   0.13174  -0.23039  -0.07417  -0.27048
  27   69122.4    144.7   0.095140115   0.45313   0.10310   0.64667   0.15593
  28   69129.4    144.7   0.010488989   0.04995  -0.17251  -0.09556   0.10517
  29   69391.1    144.1   0.013658421   0.06480  -0.07906  -0.22483  -0.08945
  30   69499.4    143.9   0.000230681   0.00109  -0.02892  -0.00709   0.01435
  31   69594.2    143.7   0.002098984   0.00993   0.08033   0.01249  -0.05762
  32   70029.9    142.8   0.008278737   0.03892  -0.11556  -0.07345  -0.14202
  33   70489.9    141.9   0.028767196   0.13435   0.10554  -0.32229   0.13908
  34   70637.7    141.6   0.007481628   0.03487  -0.14629   0.01105   0.11552
  35   70986.4    140.9   0.000547692   0.00254   0.03100  -0.00624   0.03925
  36   71298.8    140.3   0.032305968   0.14917   0.18302  -0.24733   0.23345
  37   71372.7    140.1   0.000454693   0.00210   0.03884  -0.00090  -0.02424
  38   71702.2    139.5   0.004828941   0.02217   0.11523  -0.00284  -0.09427
  39   72077.6    138.7   0.026724180   0.12206   0.07690   0.32999   0.08516
  40   72158.2    138.6   0.002048644   0.00935  -0.07460   0.00372   0.06138
  41   72771.8    137.4   0.001532398   0.00693  -0.06473   0.00470   0.05215
  42   73180.4    136.6   0.000078101   0.00035   0.01210   0.00363   0.01385
  43   73718.1    135.7   0.100527324   0.44894  -0.27321  -0.52055  -0.32143
  44   73818.0    135.5   0.011116428   0.04958   0.17246  -0.00263  -0.14081
  45   74265.4    134.7   0.065645704   0.29100  -0.34069  -0.03786  -0.41653
  46   74650.7    134.0   0.049951468   0.22029   0.17226   0.38669   0.20268
  47   74767.7    133.7   0.001595367   0.00702  -0.05898   0.01386   0.05791
  48   74877.1    133.6   0.096406971   0.42387   0.18658   0.58706   0.21076
  49   75334.8    132.7   0.000818725   0.00358   0.04657   0.00107  -0.03752
  50   75456.7    132.5   0.000089747   0.00039  -0.01561  -0.00108   0.01212

-----------------------------------------------------------------------------
         ABSORPTION SPECTRUM VIA TRANSITION VELOCITY DIPOLE MOMENTS
-----------------------------------------------------------------------------
State   Energy  Wavelength   fosc         P2         PX        PY        PZ  
        (cm-1)    (nm)                  (au**2)     (au)      (au)      (au) 
-----------------------------------------------------------------------------
   1   51108.8    195.7   0.000025581   0.00001   0.00235  -0.00003  -0.00185
   2   53025.7    188.6   0.002419668   0.00088  -0.01025  -0.02531  -0.01146
   3   53389.6    187.3   0.003752028   0.00137   0.02870  -0.00081  -0.02334
   4   55500.0    180.2   0.020270369   0.00769  -0.05466   0.00078  -0.06856
   5   55784.4    179.3   0.022219553   0.00847   0.07194  -0.00144  -0.05739
   6   58618.5    170.6   0.005783299   0.00232   0.03052   0.00349   0.03706
   7   58790.5    170.1   0.009326552   0.00375   0.04748  -0.00054  -0.03863
   8   59414.1    168.3   0.001003689   0.00041  -0.01565   0.00040   0.01275
   9   59861.2    167.1   0.025930869   0.01061  -0.01486  -0.10062  -0.01621
  10   60647.3    164.9   0.000338084   0.00014   0.00930  -0.00004  -0.00733
  11   60957.3    164.0   0.000717522   0.00030  -0.01334   0.00027   0.01099
  12   61409.7    162.8   0.007082554   0.00297  -0.03103  -0.02328  -0.03831
  13   61644.4    162.2   0.003067484   0.00129   0.02110  -0.01242   0.02632
  14   62591.9    159.8   0.001697253   0.00073  -0.02110   0.00027   0.01676
  15   62655.3    159.6   0.002094452   0.00090   0.02370   0.00019  -0.01830
  16   63073.7    158.5   0.003153469   0.00136  -0.01419  -0.02969  -0.01664
  17   65081.2    153.7   0.018655638   0.00830   0.07038  -0.00205  -0.05780
  18   65442.6    152.8   0.099920838   0.04469   0.07309   0.17968   0.08404
  19   66143.7    151.2   0.010646104   0.00481   0.05341  -0.00061  -0.04427
  20   66272.6    150.9   0.011342822   0.00514  -0.00573  -0.07108  -0.00728
  21   66458.6    150.5   0.009246886   0.00420  -0.02874  -0.04706  -0.03405
  22   66752.6    149.8   0.000066327   0.00003  -0.00465  -0.00067   0.00286
  23   67813.6    147.5   0.002356740   0.00109  -0.02612  -0.00048   0.02024
  24   68154.8    146.7   0.005964139   0.00278  -0.03410   0.00828   0.03933
  25   68267.4    146.5   0.107603633   0.05021  -0.10381  -0.15783  -0.12049
  26   68381.3    146.2   0.010868723   0.00508   0.04565   0.01199   0.05340
  27   69122.4    144.7   0.037919350   0.01791  -0.02856  -0.12297  -0.04444
  28   69129.4    144.7   0.007152093   0.00338   0.04729   0.01789  -0.02869
  29   69391.1    144.1   0.008062882   0.00382   0.02757   0.04510   0.03209
  30   69499.4    143.9   0.000013368   0.00001   0.00069   0.00156   0.00185
  31   69594.2    143.7   0.001429866   0.00068  -0.02108  -0.00238   0.01517
  32   70029.9    142.8   0.002824764   0.00135   0.02258   0.00736   0.02807
  33   70489.9    141.9   0.010130492   0.00488  -0.02426   0.05733  -0.03171
  34   70637.7    141.6   0.005226404   0.00252   0.03936  -0.00228  -0.03112
  35   70986.4    140.9   0.001133979   0.00055  -0.01432  -0.00494  -0.01791
  36   71298.8    140.3   0.007749477   0.00378  -0.02804   0.04124  -0.03591
  37   71372.7    140.1   0.000201994   0.00010  -0.00834   0.00005   0.00538
  38   71702.2    139.5   0.000118725   0.00006   0.00602  -0.00000  -0.00469
  39   72077.6    138.7   0.011056201   0.00545  -0.02138  -0.06624  -0.02452
  40   72158.2    138.6   0.000263295   0.00013   0.00873  -0.00053  -0.00731
  41   72771.8    137.4   0.000382865   0.00019   0.01068  -0.00085  -0.00869
  42   73180.4    136.6   0.000170185   0.00009  -0.00488  -0.00540  -0.00567
  43   73718.1    135.7   0.054889752   0.02765   0.08098   0.10854   0.09651
  44   73818.0    135.5   0.006354481   0.00321  -0.04386   0.00067   0.03581
  45   74265.4    134.7   0.023470306   0.01191   0.06897   0.00636   0.08436
  46   74650.7    134.0   0.018339763   0.00936  -0.03403  -0.08128  -0.03991
  47   74767.7    133.7   0.000087738   0.00004   0.00251  -0.00360  -0.00506
  48   74877.1    133.6   0.076943151   0.03938  -0.05904  -0.17703  -0.06746
  49   75334.8    132.7   0.000001246   0.00000  -0.00054  -0.00057   0.00015
  50   75456.7    132.5   0.000245600   0.00013   0.00882   0.00025  -0.00699

-------------------------------------------------------------------
                             CD SPECTRUM
-------------------------------------------------------------------
State   Energy Wavelength       R         MX        MY        MZ   
        (cm-1)   (nm)       (1e40*sgs)   (au)      (au)      (au)  
-------------------------------------------------------------------
   1   51108.8    195.7      0.00919  -0.02090  -0.20817  -0.01999
   2   53025.7    188.6      0.06223   0.05707  -0.00224  -0.04476
   3   53389.6    187.3     -0.04129  -0.10747   0.13434  -0.13672
   4   55500.0    180.2      0.17580  -0.28490   0.00727   0.22872
   5   55784.4    179.3     -0.12203  -0.15848   0.13416  -0.20352
   6   58618.5    170.6      0.05944   0.08880  -0.00203  -0.07394
   7   58790.5    170.1      0.06039  -0.14744   0.09943  -0.18217
   8   59414.1    168.3      0.04702  -0.01447  -0.21167  -0.01198
   9   59861.2    167.1     -0.31877   0.21927  -0.00482  -0.17925
  10   60647.3    164.9      0.06053   0.05847  -0.19970   0.07669
  11   60957.3    164.0      0.04581  -0.07620   0.07451  -0.09614
  12   61409.7    162.8      0.01904  -0.08761   0.00001   0.07182
  13   61644.4    162.2     -0.04873   0.04448  -0.00156  -0.03554
  14   62591.9    159.8     -0.00415  -0.05680   0.11767  -0.07302
  15   62655.3    159.6     -0.18586  -0.00059   0.05942  -0.00413
  16   63073.7    158.5      0.02611  -0.16025   0.00386   0.13001
  17   65081.2    153.7      0.19917   0.13586   0.07720   0.16445
  18   65442.6    152.8     -0.14542  -0.05602   0.00170   0.04583
  19   66143.7    151.2     -0.05226  -0.04014   0.16255  -0.05125
  20   66272.6    150.9      0.10524   0.09036   0.00105  -0.07525
  21   66458.6    150.5     -0.22394   0.04413  -0.00302  -0.03625
  22   66752.6    149.8      0.23052   0.03695   0.09032   0.04292
  23   67813.6    147.5      0.59200  -0.04723   0.33221  -0.06596
  24   68154.8    146.7      0.79535   0.01995  -0.15830   0.04078
  25   68267.4    146.5     -1.64537  -0.00570  -0.00706   0.00729
  26   68381.3    146.2      0.95341  -0.20708   0.00766   0.16682
  27   69122.4    144.7     -4.26998  -0.15832  -0.01916   0.12605
  28   69129.4    144.7      4.37584   0.01421  -0.15508  -0.02934
  29   69391.1    144.1      0.42718  -0.21852   0.00153   0.17915
  30   69499.4    143.9     -0.22878  -0.03700   0.12694  -0.04565
  31   69594.2    143.7     -0.97120  -0.00142  -0.15768  -0.00039
  32   70029.9    142.8     -0.02459  -0.07886   0.00193   0.06354
  33   70489.9    141.9     -0.08620  -0.13194   0.00176   0.10289
  34   70637.7    141.6     -0.35920  -0.06547  -0.08278  -0.08159
  35   70986.4    140.9      0.00664  -0.07780   0.00077   0.06193
  36   71298.8    140.3      0.45250   0.20167  -0.00682  -0.16122
  37   71372.7    140.1     -0.52234  -0.12765   0.24060  -0.16772
  38   71702.2    139.5      0.14710  -0.16795  -0.20471  -0.20243
  39   72077.6    138.7     -0.15816  -0.06887   0.00046   0.05646
  40   72158.2    138.6      0.01675   0.15456  -0.06575   0.19241
  41   72771.8    137.4      0.41487  -0.16752   0.23068  -0.21185
  42   73180.4    136.6      0.00442  -0.04294   0.00041   0.03810
  43   73718.1    135.7     -0.07198   0.30658  -0.00628  -0.24994
  44   73818.0    135.5      0.07629  -0.01022   0.26309  -0.01858
  45   74265.4    134.7      0.28031  -0.25965   0.00663   0.21034
  46   74650.7    134.0     -0.04867   0.16028  -0.00290  -0.13121
  47   74767.7    133.7      0.74582   0.05895   0.04063   0.07765
  48   74877.1    133.6     -0.60771  -0.18078   0.00280   0.14613
  49   75334.8    132.7     -0.13704  -0.05916  -0.07592  -0.06784
  50   75456.7    132.5     -0.02731   0.02293   0.01320   0.02593

Total run time:      471.887 sec

           *** ORCA-CIS/TD-DFT FINISHED WITHOUT ERROR ***

-----------------------
CIS/TD-DFT TOTAL ENERGY
-----------------------

    E(SCF)  =   -325.318279333 Eh
    DE(CIS) =      0.232868643 Eh (Root  1)
    ----------------------------- ---------
    E(tot)  =   -325.085410690 Eh


-------------------------   --------------------
FINAL SINGLE POINT ENERGY      -325.085410689791
-------------------------   --------------------


                            ***************************************
                            *     ORCA property calculations      *
                            ***************************************

                                    ---------------------
                                    Active property flags
                                    ---------------------
   (+) Dipole Moment


------------------------------------------------------------------------------
                       ORCA ELECTRIC PROPERTIES CALCULATION
------------------------------------------------------------------------------

Dipole Moment Calculation                       ... on
Quadrupole Moment Calculation                   ... off
Polarizability Calculation                      ... off
GBWName                                         ... 10777.gbw
Electron density file                           ... 10777.scfp.tmp

-------------
DIPOLE MOMENT
-------------
                                X             Y             Z
Electronic contribution:      0.22113       3.02881       0.18889
Nuclear contribution   :     -0.22044      -4.50832      -0.14807
                        -----------------------------------------
Total Dipole Moment    :      0.00069      -1.47951       0.04083
                        -----------------------------------------
Magnitude (a.u.)       :      1.48007
Magnitude (Debye)      :      3.76205


Timings for individual modules:

Sum of individual times         ...      536.536 sec (=   8.942 min)
GTO integral calculation        ...        1.301 sec (=   0.022 min)   0.2 %
SCF iterations                  ...       62.875 sec (=   1.048 min)  11.7 %
CIS module                      ...      472.360 sec (=   7.873 min)  88.0 %
                             ****ORCA TERMINATED NORMALLY****
TOTAL RUN TIME: 0 days 0 hours 8 minutes 57 seconds 703 msec
