<?xml version="1.0" encoding="ISO-8859-1"?>
<modeling>
 <generator>
  <i name="program" type="string">vasp </i>
  <i name="version" type="string">5.4.4.18Apr17-6-g9f103f2a35  </i>
  <i name="subversion" type="string">(build May 06 2020 14:52:35) complex            parallel </i>
  <i name="platform" type="string">LinuxIFC </i>
  <i name="date" type="string">2021 06 28 </i>
  <i name="time" type="string">17:34:21 </i>
 </generator>
 <incar>
  <i type="string" name="SYSTEM">   SiO2</i>
  <i type="string" name="PREC">accurate</i>
  <i type="string" name="ALGO">   Fast</i>
  <i type="int" name="NSIM">     1</i>
  <i type="logical" name="ADDGRID"> T  </i>
  <i type="int" name="ISPIN">     1</i>
  <i type="int" name="NELM">   100</i>
  <i type="int" name="NELMDL">   -15</i>
  <i type="int" name="NELMIN">     5</i>
  <i type="int" name="IBRION">    -1</i>
  <i type="int" name="NFREE">    10</i>
  <i name="EDIFF">      0.00000100</i>
  <i name="EDIFFG">     -0.01000000</i>
  <i type="int" name="NSW">     0</i>
  <i type="int" name="ISIF">     2</i>
  <i type="int" name="ISYM">     0</i>
  <i name="ENCUT">    440.00000000</i>
  <i name="POTIM">      0.20000000</i>
  <i type="string" name="LREAL">   Auto</i>
  <i type="int" name="ISMEAR">     0</i>
  <i name="SIGMA">      0.03000000</i>
  <i type="int" name="NWRITE">     2</i>
  <i type="logical" name="LWAVE"> F  </i>
  <i type="logical" name="LCHARG"> F  </i>
  <i type="logical" name="LVTOT"> F  </i>
  <v type="int" name="KPOINT_BSE">    -1     0     0     0</v>
  <i type="int" name="NELM">   100</i>
 </incar>
 <structure name="primitive_cell" >
  <crystal>
   <varray name="basis" >
    <v>       4.91694834      -8.51640434       0.00000000 </v>
    <v>       4.91694834       8.51640434       0.00000000 </v>
    <v>       0.00000000       0.00000000      20.44520000 </v>
   </varray>
   <i name="volume">   1712.27405710 </i>
   <varray name="rec_basis" >
    <v>       0.10168909      -0.05871022       0.00000000 </v>
    <v>       0.10168909       0.05871022       0.00000000 </v>
    <v>       0.00000000       0.00000000       0.04891124 </v>
   </varray>
  </crystal>
  <varray name="positions" >
   <v>       0.23113547       0.48384641       0.17732646 </v>
   <v>       0.17412153      -0.40672058       0.21464452 </v>
   <v>       0.06505217       0.33586647       0.15280073 </v>
   <v>       0.34522756      -0.43901767       0.11367742 </v>
   <v>       0.31688557       0.41396420       0.22562173 </v>
   <v>       0.43254946       0.47311835       0.22593313 </v>
   <v>       0.23907283      -0.29170148       0.22150121 </v>
   <v>       0.23890211       0.20855863       0.22138096 </v>
   <v>      -0.00555244       0.22443545       0.08842104 </v>
   <v>      -0.06768247       0.47354416       0.22609419 </v>
   <v>       0.49444078      -0.27560037       0.08841476 </v>
   <v>      -0.43488086      -0.16415851       0.15277658 </v>
   <v>       0.12903271       0.19594535       0.05637022 </v>
   <v>       0.17405977       0.09342980       0.21463483 </v>
   <v>       0.12879746      -0.30421564       0.05630430 </v>
   <v>      -0.18331651       0.41432056       0.22565960 </v>
   <v>      -0.06665770       0.29968081       0.03252186 </v>
   <v>      -0.32624457      -0.40656597       0.21464147 </v>
   <v>       0.31705078      -0.08567825       0.22567691 </v>
   <v>       0.43334131      -0.20024337       0.03255873 </v>
   <v>      -0.15487579       0.06104591       0.11366120 </v>
   <v>      -0.37108394      -0.30415134       0.05630524 </v>
   <v>      -0.43506979       0.33607896       0.15276875 </v>
   <v>      -0.26113410       0.20818414       0.22150279 </v>
   <v>       0.26718929       0.26718891       0.00000028 </v>
   <v>       0.43272052      -0.02618506       0.22609812 </v>
   <v>       0.29275144       0.41916981      -0.02757615 </v>
   <v>      -0.26133863      -0.29152771       0.22156669 </v>
   <v>      -0.15505124      -0.43864623       0.11365629 </v>
   <v>       0.43346230       0.29983328       0.03245187 </v>
   <v>      -0.00555931      -0.27541771       0.08839946 </v>
   <v>       0.26718982      -0.23281043       0.00000028 </v>
   <v>      -0.06743361      -0.02671889       0.22605844 </v>
   <v>       0.06510076      -0.16403644       0.15278803 </v>
   <v>       0.49447968       0.22462060       0.08840076 </v>
   <v>      -0.26905827       0.48413489       0.17730675 </v>
   <v>       0.23115187      -0.01598620       0.17734617 </v>
   <v>      -0.26888653      -0.01615162       0.17732367 </v>
   <v>      -0.32602090       0.09315561       0.21468536 </v>
   <v>       0.34519370       0.06126696       0.11369364 </v>
   <v>       0.21010715      -0.35233730      -0.05369965 </v>
   <v>      -0.18309199      -0.08592423       0.22566712 </v>
   <v>      -0.23280985       0.26718923       0.00000028 </v>
   <v>      -0.37095803       0.19609476       0.05637115 </v>
   <v>       0.21010756       0.14766313      -0.05369965 </v>
   <v>       0.29275157      -0.08082914      -0.02757615 </v>
   <v>      -0.20724810       0.41917053      -0.02757615 </v>
   <v>      -0.23281054      -0.23281092       0.00000028 </v>
   <v>      -0.06648405      -0.20007871       0.03246339 </v>
   <v>      -0.28989227      -0.35233670      -0.05369965 </v>
   <v>      -0.28989311       0.14766295      -0.05369965 </v>
   <v>      -0.20724839      -0.08083002      -0.02757615 </v>
  </varray>
 </structure>
 <varray name="primitive_index" >
  <v type="int" >        1 </v>
  <v type="int" >       31 </v>
  <v type="int" >       18 </v>
  <v type="int" >       32 </v>
  <v type="int" >       17 </v>
  <v type="int" >       48 </v>
  <v type="int" >       49 </v>
  <v type="int" >       52 </v>
  <v type="int" >        5 </v>
  <v type="int" >       47 </v>
  <v type="int" >       11 </v>
  <v type="int" >       30 </v>
  <v type="int" >       16 </v>
  <v type="int" >       13 </v>
  <v type="int" >       34 </v>
  <v type="int" >       23 </v>
  <v type="int" >       21 </v>
  <v type="int" >       25 </v>
  <v type="int" >       35 </v>
  <v type="int" >       33 </v>
  <v type="int" >       20 </v>
  <v type="int" >       28 </v>
  <v type="int" >       24 </v>
  <v type="int" >       50 </v>
  <v type="int" >        3 </v>
  <v type="int" >       45 </v>
  <v type="int" >       40 </v>
  <v type="int" >       51 </v>
  <v type="int" >       26 </v>
  <v type="int" >       15 </v>
  <v type="int" >        8 </v>
  <v type="int" >       12 </v>
  <v type="int" >       46 </v>
  <v type="int" >       36 </v>
  <v type="int" >        2 </v>
  <v type="int" >        4 </v>
  <v type="int" >       10 </v>
  <v type="int" >        7 </v>
  <v type="int" >       19 </v>
  <v type="int" >       14 </v>
  <v type="int" >       41 </v>
  <v type="int" >       29 </v>
  <v type="int" >        6 </v>
  <v type="int" >       22 </v>
  <v type="int" >       44 </v>
  <v type="int" >       37 </v>
  <v type="int" >       39 </v>
  <v type="int" >        9 </v>
  <v type="int" >       27 </v>
  <v type="int" >       43 </v>
  <v type="int" >       42 </v>
  <v type="int" >       38 </v>
 </varray>
 <kpoints>
  <generation param="Gamma">
   <v type="int" name="divisions">       3        3        1 </v>
   <v name="usershift">      0.00000000       0.00000000       0.00000000 </v>
   <v name="genvec1">      0.33333333      -0.00000000       0.00000000 </v>
   <v name="genvec2">     -0.00000000       0.33333333       0.00000000 </v>
   <v name="genvec3">      0.00000000       0.00000000       1.00000000 </v>
   <v name="shift">      0.00000000       0.00000000       0.00000000 </v>
  </generation>
  <varray name="kpointlist" >
   <v>       0.00000000       0.00000000       0.00000000 </v>
   <v>       0.33333333      -0.00000000       0.00000000 </v>
   <v>      -0.00000000       0.33333333       0.00000000 </v>
   <v>       0.33333333       0.33333333       0.00000000 </v>
   <v>      -0.33333333       0.33333333       0.00000000 </v>
  </varray>
  <varray name="weights" >
   <v>       0.11111111 </v>
   <v>       0.22222222 </v>
   <v>       0.22222222 </v>
   <v>       0.22222222 </v>
   <v>       0.22222222 </v>
  </varray>
 </kpoints>
 <parameters>
  <separator name="general" >
   <i type="string" name="SYSTEM">SiO2</i>
   <i type="logical" name="LCOMPAT"> F  </i>
  </separator>
  <separator name="electronic" >
   <i type="string" name="PREC">accura</i>
   <i name="ENMAX">    440.00000000</i>
   <i name="ENAUG">    605.39200000</i>
   <i name="EDIFF">      0.00000100</i>
   <i type="int" name="IALGO">    68</i>
   <i type="int" name="IWAVPR">    10</i>
   <i type="int" name="NBANDS">   132</i>
   <i name="NELECT">    208.00000000</i>
   <i type="int" name="TURBO">     0</i>
   <i type="int" name="IRESTART">     0</i>
   <i type="int" name="NREBOOT">     0</i>
   <i type="int" name="NMIN">     0</i>
   <i name="EREF">      0.00000000</i>
   <separator name="electronic smearing" >
    <i type="int" name="ISMEAR">     0</i>
    <i name="SIGMA">      0.03000000</i>
    <i name="KSPACING">      0.50000000</i>
    <i type="logical" name="KGAMMA"> T  </i>
   </separator>
   <separator name="electronic projectors" >
    <i type="logical" name="LREAL"> T  </i>
    <v name="ROPT">     -0.00025000     -0.00025000     -0.00025000</v>
    <i type="int" name="LMAXPAW">  -100</i>
    <i type="int" name="LMAXMIX">     2</i>
    <i type="logical" name="NLSPLINE"> F  </i>
   </separator>
   <separator name="electronic startup" >
    <i type="int" name="ISTART">     0</i>
    <i type="int" name="ICHARG">     2</i>
    <i type="int" name="INIWAV">     1</i>
   </separator>
   <separator name="electronic spin" >
    <i type="int" name="ISPIN">     1</i>
    <i type="logical" name="LNONCOLLINEAR"> F  </i>
    <v name="MAGMOM">      1.00000000      1.00000000      1.00000000      1.00000000      1.00000000      1.00000000      1.00000000      1.00000000      1.00000000      1.00000000      1.00000000      1.00000000      1.00000000      1.00000000      1.00000000      1.00000000      1.00000000      1.00000000      1.00000000      1.00000000
      1.00000000      1.00000000      1.00000000      1.00000000      1.00000000      1.00000000      1.00000000      1.00000000      1.00000000      1.00000000      1.00000000      1.00000000      1.00000000      1.00000000      1.00000000      1.00000000      1.00000000      1.00000000      1.00000000      1.00000000
      1.00000000      1.00000000      1.00000000      1.00000000      1.00000000      1.00000000      1.00000000      1.00000000      1.00000000      1.00000000      1.00000000      1.00000000</v>
    <i name="NUPDOWN">     -1.00000000</i>
    <i type="logical" name="LSORBIT"> F  </i>
    <v name="SAXIS">      0.00000000      0.00000000      1.00000000</v>
    <i type="logical" name="LSPIRAL"> F  </i>
    <v name="QSPIRAL">      0.00000000      0.00000000      0.00000000</v>
    <i type="logical" name="LZEROZ"> F  </i>
   </separator>
   <separator name="electronic exchange-correlation" >
    <i type="logical" name="LASPH"> F  </i>
    <i type="logical" name="LMETAGGA"> F  </i>
   </separator>
   <separator name="electronic convergence" >
    <i type="int" name="NELM">   100</i>
    <i type="int" name="NELMDL">   -15</i>
    <i type="int" name="NELMIN">     5</i>
    <i name="ENINI">    440.00000000</i>
    <separator name="electronic convergence detail" >
     <i type="logical" name="LDIAG"> T  </i>
     <i type="logical" name="LSUBROT"> F  </i>
     <i name="WEIMIN">      0.00000000</i>
     <i name="EBREAK">      0.00000000</i>
     <i name="DEPER">      0.30000000</i>
     <i type="int" name="NRMM">     4</i>
     <i name="TIME">      0.40000000</i>
    </separator>
   </separator>
   <separator name="electronic mixer" >
    <i name="AMIX">      0.40000000</i>
    <i name="BMIX">      1.00000000</i>
    <i name="AMIN">      0.10000000</i>
    <i name="AMIX_MAG">      1.60000000</i>
    <i name="BMIX_MAG">      1.00000000</i>
    <separator name="electronic mixer details" >
     <i type="int" name="IMIX">     4</i>
     <i type="logical" name="MIXFIRST"> F  </i>
     <i type="int" name="MAXMIX">   -45</i>
     <i name="WC">    100.00000000</i>
     <i type="int" name="INIMIX">     1</i>
     <i type="int" name="MIXPRE">     1</i>
     <i type="int" name="MREMOVE">     5</i>
    </separator>
   </separator>
   <separator name="electronic dipolcorrection" >
    <i type="logical" name="LDIPOL"> F  </i>
    <i type="logical" name="LMONO"> F  </i>
    <i type="int" name="IDIPOL">     0</i>
    <i name="EPSILON">      1.00000000</i>
    <v name="DIPOL">   -100.00000000   -100.00000000   -100.00000000</v>
    <i name="EFIELD">      0.00000000</i>
   </separator>
  </separator>
  <separator name="grids" >
   <i type="int" name="NGX">    70</i>
   <i type="int" name="NGY">    70</i>
   <i type="int" name="NGZ">   140</i>
   <i type="int" name="NGXF">   140</i>
   <i type="int" name="NGYF">   140</i>
   <i type="int" name="NGZF">   280</i>
   <i type="logical" name="ADDGRID"> T  </i>
  </separator>
  <separator name="ionic" >
   <i type="int" name="NSW">     0</i>
   <i type="int" name="IBRION">    -1</i>
   <i type="int" name="MDALGO">     0</i>
   <i type="int" name="ISIF">     2</i>
   <i name="PSTRESS">      0.00000000</i>
   <i name="EDIFFG">     -0.01000000</i>
   <i type="int" name="NFREE">    10</i>
   <i name="POTIM">      0.20000000</i>
   <i name="SMASS">     -3.00000000</i>
   <i name="SCALEE">      1.00000000</i>
  </separator>
  <separator name="ionic md" >
   <i name="TEBEG">      0.00010000</i>
   <i name="TEEND">      0.00010000</i>
   <i type="int" name="NBLOCK">     1</i>
   <i type="int" name="KBLOCK">     1</i>
   <i type="int" name="NPACO">   256</i>
   <i name="APACO">     16.00000000</i>
  </separator>
  <separator name="symmetry" >
   <i type="int" name="ISYM">     0</i>
   <i name="SYMPREC">      0.00001000</i>
  </separator>
  <separator name="dos" >
   <i type="int" name="LORBIT">     0</i>
   <v name="RWIGS">     -1.00000000     -1.00000000     -1.00000000</v>
   <i type="int" name="NEDOS">   301</i>
   <i name="EMIN">     10.00000000</i>
   <i name="EMAX">    -10.00000000</i>
   <i name="EFERMI">      0.00000000</i>
  </separator>
  <separator name="writing" >
   <i type="int" name="NWRITE">     2</i>
   <i type="logical" name="LWAVE"> F  </i>
   <i type="logical" name="LDOWNSAMPLE"> F  </i>
   <i type="logical" name="LCHARG"> F  </i>
   <i type="logical" name="LPARD"> F  </i>
   <i type="logical" name="LVTOT"> F  </i>
   <i type="logical" name="LVHAR"> F  </i>
   <i type="logical" name="LELF"> F  </i>
   <i type="logical" name="LOPTICS"> F  </i>
   <v name="STM">      0.00000000      0.00000000      0.00000000      0.00000000      0.00000000      0.00000000      0.00000000</v>
  </separator>
  <separator name="performance" >
   <i type="int" name="NPAR">     2</i>
   <i type="int" name="NSIM">     1</i>
   <i type="int" name="NBLK">    -1</i>
   <i type="logical" name="LPLANE"> T  </i>
   <i type="logical" name="LSCALAPACK"> T  </i>
   <i type="logical" name="LSCAAWARE"> F  </i>
   <i type="logical" name="LSCALU"> F  </i>
   <i type="logical" name="LASYNC"> F  </i>
   <i type="logical" name="LORBITALREAL"> F  </i>
  </separator>
  <separator name="miscellaneous" >
   <i type="int" name="IDIOT">     3</i>
   <i type="int" name="ISPECIAL">     0</i>
   <i type="logical" name="LMUSIC"> F  </i>
   <v name="POMASS">     28.08500000     16.00000000      1.00000000</v>
   <v name="DARWINR">      0.00000000      0.00000000      0.00000000</v>
   <v name="DARWINV">      1.00000000      1.00000000      1.00000000</v>
   <i type="logical" name="LCORR"> T  </i>
  </separator>
  <i type="logical" name="GGA_COMPAT"> T  </i>
  <i type="logical" name="LBERRY"> F  </i>
  <i type="int" name="ICORELEVEL">     0</i>
  <i type="logical" name="LDAU"> F  </i>
  <i type="int" name="I_CONSTRAINED_M">     0</i>
  <separator name="electronic exchange-correlation" >
   <i type="string" name="GGA">--</i>
   <i type="int" name="VOSKOWN">     0</i>
   <i type="logical" name="LHFCALC"> F  </i>
   <i type="string" name="PRECFOCK"></i>
   <i type="logical" name="LSYMGRAD"> F  </i>
   <i type="logical" name="LHFONE"> F  </i>
   <i type="logical" name="LRHFCALC"> F  </i>
   <i type="logical" name="LTHOMAS"> F  </i>
   <i type="logical" name="LMODELHF"> F  </i>
   <i name="ENCUT4O">     -1.00000000</i>
   <i type="int" name="EXXOEP">     0</i>
   <i type="int" name="FOURORBIT">     0</i>
   <i name="AEXX">      0.00000000</i>
   <i name="HFALPHA">      0.00000000</i>
   <i name="MCALPHA">      0.00000000</i>
   <i name="ALDAX">      1.00000000</i>
   <i name="AGGAX">      1.00000000</i>
   <i name="ALDAC">      1.00000000</i>
   <i name="AGGAC">      1.00000000</i>
   <i type="int" name="NKREDX">     1</i>
   <i type="int" name="NKREDY">     1</i>
   <i type="int" name="NKREDZ">     1</i>
   <i type="logical" name="SHIFTRED"> F  </i>
   <i type="logical" name="ODDONLY"> F  </i>
   <i type="logical" name="EVENONLY"> F  </i>
   <i type="int" name="LMAXFOCK">     0</i>
   <i type="int" name="NMAXFOCKAE">     0</i>
   <i type="logical" name="LFOCKAEDFT"> F  </i>
   <i name="HFSCREEN">      0.00000000</i>
   <i name="HFSCREENC">      0.00000000</i>
   <i type="int" name="NBANDSGWLOW">     0</i>
  </separator>
  <separator name="vdW DFT" >
   <i type="logical" name="LUSE_VDW"> F  </i>
   <i name="Zab_VDW">     -0.84910000</i>
   <i name="PARAM1">      0.12340000</i>
   <i name="PARAM2">      1.00000000</i>
   <i name="PARAM3">      0.00000000</i>
  </separator>
  <separator name="model GW" >
   <i type="int" name="MODEL_GW">     0</i>
   <i name="MODEL_EPS0">     19.75700835</i>
   <i name="MODEL_ALPHA">      1.00000000</i>
  </separator>
  <separator name="linear response parameters" >
   <i type="logical" name="LEPSILON"> F  </i>
   <i type="logical" name="LRPA"> F  </i>
   <i type="logical" name="LNABLA"> F  </i>
   <i type="logical" name="LVEL"> F  </i>
   <i type="int" name="KINTER">     0</i>
   <i name="CSHIFT">      0.10000000</i>
   <i name="OMEGAMAX">     -1.00000000</i>
   <i name="DEG_THRESHOLD">      0.00200000</i>
   <i name="RTIME">     -0.10000000</i>
   <i name="WPLASMAI">      0.00000000</i>
   <v name="DFIELD">      0.00000000      0.00000000      0.00000000</v>
   <v name="WPLASMA">      0.00000000      0.00000000      0.00000000      0.00000000      0.00000000      0.00000000      0.00000000      0.00000000      0.00000000</v>
  </separator>
  <separator name="orbital magnetization" >
   <i type="logical" name="NUCIND"> F  </i>
   <v name="MAGPOS">      0.00000000      0.00000000      0.00000000</v>
   <i type="logical" name="LNICSALL"> T  </i>
   <i type="logical" name="ORBITALMAG"> F  </i>
   <i type="logical" name="LMAGBLOCH"> F  </i>
   <i type="logical" name="LCHIMAG"> F  </i>
   <i type="logical" name="LGAUGE"> T  </i>
   <i type="int" name="MAGATOM">     0</i>
   <v name="MAGDIPOL">      0.00000000      0.00000000      0.00000000</v>
   <v name="AVECCONST">      0.00000000      0.00000000      0.00000000</v>
  </separator>
  <separator name="response functions" >
   <i type="logical" name="LADDER"> F  </i>
   <i type="logical" name="LRPAFORCE"> F  </i>
   <i type="logical" name="LFXC"> F  </i>
   <i type="logical" name="LHARTREE"> T  </i>
   <i type="int" name="IBSE">     0</i>
   <v type="int" name="KPOINT">    -1     0     0     0</v>
   <i type="logical" name="LTCTE"> F  </i>
   <i type="logical" name="LTETE"> F  </i>
   <i type="logical" name="LTRIPLET"> F  </i>
   <i type="logical" name="LFXCEPS"> F  </i>
   <i type="logical" name="LFXHEG"> F  </i>
   <i type="int" name="NATURALO">     2</i>
   <i type="logical" name="L2ORDER"> F  </i>
   <i type="logical" name="LMP2LT"> F  </i>
   <i type="logical" name="LUSEW"> F  </i>
   <i name="ENCUTGW">     -2.00000000</i>
   <i name="ENCUTGWSOFT">     -2.00000000</i>
   <i name="ENCUTLF">     -1.00000000</i>
   <i type="int" name="LMAXMP2">    -1</i>
   <i name="SCISSOR">      0.00000000</i>
   <i type="int" name="NOMEGA">     0</i>
   <i type="int" name="NOMEGAR">     0</i>
   <i type="int" name="NBANDSGW">    -1</i>
   <i type="int" name="NBANDSO">    -1</i>
   <i type="int" name="NBANDSV">    -1</i>
   <i type="int" name="NELM">   100</i>
   <i type="int" name="NELMHF">     1</i>
   <i type="int" name="DIM">     3</i>
   <i type="int" name="ANTIRES">     0</i>
   <i name="OMEGAMAX">    -30.00000000</i>
   <i name="OMEGAMIN">    -30.00000000</i>
   <i name="OMEGATL">   -200.00000000</i>
   <i type="int" name="OMEGAGRID">   140</i>
   <i name="CSHIFT">     -0.10000000</i>
   <i type="logical" name="SELFENERGY"> F  </i>
   <i type="logical" name="LSPECTRAL"> F  </i>
   <i type="logical" name="LSPECTRALGW"> F  </i>
   <i type="logical" name="LSINGLES"> F  </i>
   <i type="logical" name="LFERMIGW"> F  </i>
   <i type="logical" name="ODDONLYGW"> F  </i>
   <i type="logical" name="EVENONLYGW"> F  </i>
   <i type="int" name="NKREDLFX">     1</i>
   <i type="int" name="NKREDLFY">     1</i>
   <i type="int" name="NKREDLFZ">     1</i>
   <i type="int" name="MAXMEM">  2800</i>
   <i type="int" name="TELESCOPE">     0</i>
   <i type="int" name="TAUPAR">     1</i>
   <i type="int" name="OMEGAPAR">    -1</i>
   <i name="LAMBDA">      1.00000000</i>
  </separator>
  <separator name="External order field" >
   <i name="OFIELD_KAPPA">      0.00000000</i>
   <v name="OFIELD_K">      0.00000000      0.00000000      0.00000000</v>
   <i name="OFIELD_Q6_NEAR">      0.00000000</i>
   <i name="OFIELD_Q6_FAR">      0.00000000</i>
   <i name="OFIELD_A">      0.00000000</i>
  </separator>
 </parameters>
 <atominfo>
  <atoms>      52 </atoms>
  <types>       3 </types>
  <array name="atoms" >
   <dimension dim="1">ion</dimension>
   <field type="string">element</field>
   <field type="int">atomtype</field>
   <set>
    <rc><c>Si</c><c>   1</c></rc>
    <rc><c>Si</c><c>   1</c></rc>
    <rc><c>Si</c><c>   1</c></rc>
    <rc><c>Si</c><c>   1</c></rc>
    <rc><c>Si</c><c>   1</c></rc>
    <rc><c>Si</c><c>   1</c></rc>
    <rc><c>Si</c><c>   1</c></rc>
    <rc><c>Si</c><c>   1</c></rc>
    <rc><c>Si</c><c>   1</c></rc>
    <rc><c>Si</c><c>   1</c></rc>
    <rc><c>Si</c><c>   1</c></rc>
    <rc><c>Si</c><c>   1</c></rc>
    <rc><c>O </c><c>   2</c></rc>
    <rc><c>O </c><c>   2</c></rc>
    <rc><c>O </c><c>   2</c></rc>
    <rc><c>O </c><c>   2</c></rc>
    <rc><c>O </c><c>   2</c></rc>
    <rc><c>O </c><c>   2</c></rc>
    <rc><c>O </c><c>   2</c></rc>
    <rc><c>O </c><c>   2</c></rc>
    <rc><c>O </c><c>   2</c></rc>
    <rc><c>O </c><c>   2</c></rc>
    <rc><c>O </c><c>   2</c></rc>
    <rc><c>O </c><c>   2</c></rc>
    <rc><c>O </c><c>   2</c></rc>
    <rc><c>O </c><c>   2</c></rc>
    <rc><c>O </c><c>   2</c></rc>
    <rc><c>O </c><c>   2</c></rc>
    <rc><c>O </c><c>   2</c></rc>
    <rc><c>O </c><c>   2</c></rc>
    <rc><c>O </c><c>   2</c></rc>
    <rc><c>O </c><c>   2</c></rc>
    <rc><c>O </c><c>   2</c></rc>
    <rc><c>O </c><c>   2</c></rc>
    <rc><c>O </c><c>   2</c></rc>
    <rc><c>O </c><c>   2</c></rc>
    <rc><c>H </c><c>   3</c></rc>
    <rc><c>H </c><c>   3</c></rc>
    <rc><c>H </c><c>   3</c></rc>
    <rc><c>H </c><c>   3</c></rc>
    <rc><c>H </c><c>   3</c></rc>
    <rc><c>H </c><c>   3</c></rc>
    <rc><c>H </c><c>   3</c></rc>
    <rc><c>H </c><c>   3</c></rc>
    <rc><c>H </c><c>   3</c></rc>
    <rc><c>H </c><c>   3</c></rc>
    <rc><c>H </c><c>   3</c></rc>
    <rc><c>H </c><c>   3</c></rc>
    <rc><c>H </c><c>   3</c></rc>
    <rc><c>H </c><c>   3</c></rc>
    <rc><c>H </c><c>   3</c></rc>
    <rc><c>H </c><c>   3</c></rc>
   </set>
  </array>
  <array name="atomtypes" >
   <dimension dim="1">type</dimension>
   <field type="int">atomspertype</field>
   <field type="string">element</field>
   <field>mass</field>
   <field>valence</field>
   <field type="string">pseudopotential</field>
   <set>
    <rc><c>  12</c><c>Si</c><c>     28.08500000</c><c>      4.00000000</c><c>  PAW_PBE Si 05Jan2001                  </c></rc>
    <rc><c>  24</c><c>O </c><c>     16.00000000</c><c>      6.00000000</c><c>  PAW_PBE O 08Apr2002                   </c></rc>
    <rc><c>  16</c><c>H </c><c>      1.00000000</c><c>      1.00000000</c><c>  PAW_PBE H 15Jun2001                   </c></rc>
   </set>
  </array>
 </atominfo>
 <structure name="initialpos" >
  <crystal>
   <varray name="basis" >
    <v>       4.91694834      -8.51640434       0.00000000 </v>
    <v>       4.91694834       8.51640434       0.00000000 </v>
    <v>       0.00000000       0.00000000      20.44520000 </v>
   </varray>
   <i name="volume">   1712.27405710 </i>
   <varray name="rec_basis" >
    <v>       0.10168909      -0.05871022       0.00000000 </v>
    <v>       0.10168909       0.05871022       0.00000000 </v>
    <v>       0.00000000       0.00000000       0.04891124 </v>
   </varray>
  </crystal>
  <varray name="positions" >
   <v>       0.23113547       0.48384641       0.17732646 </v>
   <v>       0.49447968       0.22462060       0.08840076 </v>
   <v>       0.26718929       0.26718891       0.00000028 </v>
   <v>       0.73094173       0.48413489       0.17730675 </v>
   <v>       0.99444756       0.22443545       0.08842104 </v>
   <v>       0.76719015       0.26718923       0.00000028 </v>
   <v>       0.73111347       0.98384838       0.17732367 </v>
   <v>       0.99444069       0.72458229       0.08839946 </v>
   <v>       0.76718946       0.76718908       0.00000028 </v>
   <v>       0.23115187       0.98401380       0.17734617 </v>
   <v>       0.49444078       0.72439963       0.08841476 </v>
   <v>       0.26718982       0.76718957       0.00000028 </v>
   <v>       0.17405977       0.09342980       0.21463483 </v>
   <v>       0.34519370       0.06126696       0.11369364 </v>
   <v>       0.43346230       0.29983328       0.03245187 </v>
   <v>       0.12903271       0.19594535       0.05637022 </v>
   <v>       0.31688557       0.41396420       0.22562173 </v>
   <v>       0.06505217       0.33586647       0.15280073 </v>
   <v>       0.67397910       0.09315561       0.21468536 </v>
   <v>       0.84512421       0.06104591       0.11366120 </v>
   <v>       0.93334230       0.29968081       0.03252186 </v>
   <v>       0.62904197       0.19609476       0.05637115 </v>
   <v>       0.81668349       0.41432056       0.22565960 </v>
   <v>       0.56493021       0.33607896       0.15276875 </v>
   <v>       0.67375543       0.59343403       0.21464147 </v>
   <v>       0.84494876       0.56135377       0.11365629 </v>
   <v>       0.93351595       0.79992129       0.03246339 </v>
   <v>       0.62891606       0.69584866       0.05630524 </v>
   <v>       0.81690801       0.91407577       0.22566712 </v>
   <v>       0.56511914       0.83584149       0.15277658 </v>
   <v>       0.17412153       0.59327942       0.21464452 </v>
   <v>       0.34522756       0.56098233       0.11367742 </v>
   <v>       0.43334131       0.79975663       0.03255873 </v>
   <v>       0.12879746       0.69578436       0.05630430 </v>
   <v>       0.31705078       0.91432175       0.22567691 </v>
   <v>       0.06510076       0.83596356       0.15278803 </v>
   <v>       0.29275157       0.91917086       0.97242385 </v>
   <v>       0.79275161       0.91916998       0.97242385 </v>
   <v>       0.79275190       0.41917053       0.97242385 </v>
   <v>       0.29275144       0.41916981       0.97242385 </v>
   <v>       0.21010715       0.64766270       0.94630035 </v>
   <v>       0.71010689       0.14766295       0.94630035 </v>
   <v>       0.71010773       0.64766330       0.94630035 </v>
   <v>       0.21010756       0.14766313       0.94630035 </v>
   <v>       0.43272052       0.97381494       0.22609812 </v>
   <v>       0.93256639       0.97328111       0.22605844 </v>
   <v>       0.93231753       0.47354416       0.22609419 </v>
   <v>       0.43254946       0.47311835       0.22593313 </v>
   <v>       0.23907283       0.70829852       0.22150121 </v>
   <v>       0.73886590       0.20818414       0.22150279 </v>
   <v>       0.73866137       0.70847229       0.22156669 </v>
   <v>       0.23890211       0.20855863       0.22138096 </v>
  </varray>
  <varray name="selective"  type="logical" >
   <v type="logical" >  T  T  T </v>
   <v type="logical" >  T  T  T </v>
   <v type="logical" >  F  F  F </v>
   <v type="logical" >  T  T  T </v>
   <v type="logical" >  T  T  T </v>
   <v type="logical" >  F  F  F </v>
   <v type="logical" >  T  T  T </v>
   <v type="logical" >  T  T  T </v>
   <v type="logical" >  F  F  F </v>
   <v type="logical" >  T  T  T </v>
   <v type="logical" >  T  T  T </v>
   <v type="logical" >  F  F  F </v>
   <v type="logical" >  T  T  T </v>
   <v type="logical" >  T  T  T </v>
   <v type="logical" >  T  T  T </v>
   <v type="logical" >  T  T  T </v>
   <v type="logical" >  T  T  T </v>
   <v type="logical" >  T  T  T </v>
   <v type="logical" >  T  T  T </v>
   <v type="logical" >  T  T  T </v>
   <v type="logical" >  T  T  T </v>
   <v type="logical" >  T  T  T </v>
   <v type="logical" >  T  T  T </v>
   <v type="logical" >  T  T  T </v>
   <v type="logical" >  T  T  T </v>
   <v type="logical" >  T  T  T </v>
   <v type="logical" >  T  T  T </v>
   <v type="logical" >  T  T  T </v>
   <v type="logical" >  T  T  T </v>
   <v type="logical" >  T  T  T </v>
   <v type="logical" >  T  T  T </v>
   <v type="logical" >  T  T  T </v>
   <v type="logical" >  T  T  T </v>
   <v type="logical" >  T  T  T </v>
   <v type="logical" >  T  T  T </v>
   <v type="logical" >  T  T  T </v>
   <v type="logical" >  F  F  F </v>
   <v type="logical" >  F  F  F </v>
   <v type="logical" >  F  F  F </v>
   <v type="logical" >  F  F  F </v>
   <v type="logical" >  F  F  F </v>
   <v type="logical" >  F  F  F </v>
   <v type="logical" >  F  F  F </v>
   <v type="logical" >  F  F  F </v>
   <v type="logical" >  T  T  T </v>
   <v type="logical" >  T  T  T </v>
   <v type="logical" >  T  T  T </v>
   <v type="logical" >  T  T  T </v>
   <v type="logical" >  T  T  T </v>
   <v type="logical" >  T  T  T </v>
   <v type="logical" >  T  T  T </v>
   <v type="logical" >  T  T  T </v>
  </varray>
  <nose>
   <v>      -3.00000000       0.00000000       0.00010000       0.00010000 </v>
  </nose>
 </structure>
 <calculation>
  <scstep>
   <time name="dav">    2.74    2.79</time>
   <time name="total">    2.92    3.00</time>
   <energy>
    <i name="alphaZ">     84.52120492 </i>
    <i name="ewald">  33448.71583108 </i>
    <i name="hartreedc"> -43337.24255025 </i>
    <i name="XCdc">    598.73286608 </i>
    <i name="pawpsdc">   9408.81747972 </i>
    <i name="pawaedc">  -9241.00823835 </i>
    <i name="eentropy">     -0.01499949 </i>
    <i name="bandstr">   -900.15165594 </i>
    <i name="atom">  11812.51476710 </i>
    <i name="e_fr_energy">   1874.88470487 </i>
    <i name="e_wo_entrp">   1874.89970436 </i>
    <i name="e_0_energy">   1874.89220462 </i>
   </energy>
  </scstep>
  <scstep>
   <time name="dav">    3.11    3.11</time>
   <time name="total">    3.11    3.11</time>
   <energy>
    <i name="e_fr_energy">      3.51030115 </i>
    <i name="e_wo_entrp">      3.51030115 </i>
    <i name="e_0_energy">      3.51030115 </i>
   </energy>
  </scstep>
  <scstep>
   <time name="dav">    2.75    2.75</time>
   <time name="total">    2.75    2.75</time>
   <energy>
    <i name="e_fr_energy">   -358.66737295 </i>
    <i name="e_wo_entrp">   -358.66737295 </i>
    <i name="e_0_energy">   -358.66737295 </i>
   </energy>
  </scstep>
  <scstep>
   <time name="dav">    2.77    2.77</time>
   <time name="total">    2.77    2.77</time>
   <energy>
    <i name="e_fr_energy">   -371.03284053 </i>
    <i name="e_wo_entrp">   -371.03284053 </i>
    <i name="e_0_energy">   -371.03284053 </i>
   </energy>
  </scstep>
  <scstep>
   <time name="dav">    2.87    2.87</time>
   <time name="total">    2.87    2.87</time>
   <energy>
    <i name="e_fr_energy">   -371.37807329 </i>
    <i name="e_wo_entrp">   -371.37807329 </i>
    <i name="e_0_energy">   -371.37807329 </i>
   </energy>
  </scstep>
  <scstep>
   <time name="dav">    2.78    2.78</time>
   <time name="total">    2.78    2.78</time>
   <energy>
    <i name="e_fr_energy">   -371.38956410 </i>
    <i name="e_wo_entrp">   -371.38956410 </i>
    <i name="e_0_energy">   -371.38956410 </i>
   </energy>
  </scstep>
  <scstep>
   <time name="dav">    2.91    2.91</time>
   <time name="total">    2.91    2.91</time>
   <energy>
    <i name="e_fr_energy">   -371.39011154 </i>
    <i name="e_wo_entrp">   -371.39011154 </i>
    <i name="e_0_energy">   -371.39011154 </i>
   </energy>
  </scstep>
  <scstep>
   <time name="dav">    2.72    2.73</time>
   <time name="total">    2.73    2.73</time>
   <energy>
    <i name="e_fr_energy">   -371.39013617 </i>
    <i name="e_wo_entrp">   -371.39013617 </i>
    <i name="e_0_energy">   -371.39013617 </i>
   </energy>
  </scstep>
  <scstep>
   <time name="dav">    2.39    2.39</time>
   <time name="total">    2.39    2.39</time>
   <energy>
    <i name="e_fr_energy">   -371.39013755 </i>
    <i name="e_wo_entrp">   -371.39013755 </i>
    <i name="e_0_energy">   -371.39013755 </i>
   </energy>
  </scstep>
  <scstep>
   <time name="dav">    2.08    2.08</time>
   <time name="total">    2.08    2.08</time>
   <energy>
    <i name="e_fr_energy">   -371.39013762 </i>
    <i name="e_wo_entrp">   -371.39013762 </i>
    <i name="e_0_energy">   -371.39013762 </i>
   </energy>
  </scstep>
  <scstep>
   <time name="dav">    1.96    1.97</time>
   <time name="total">    1.96    1.97</time>
   <energy>
    <i name="e_fr_energy">   -371.39013763 </i>
    <i name="e_wo_entrp">   -371.39013763 </i>
    <i name="e_0_energy">   -371.39013763 </i>
   </energy>
  </scstep>
  <scstep>
   <time name="dav">    1.90    1.90</time>
   <time name="total">    1.90    1.90</time>
   <energy>
    <i name="e_fr_energy">   -371.39013764 </i>
    <i name="e_wo_entrp">   -371.39013764 </i>
    <i name="e_0_energy">   -371.39013764 </i>
   </energy>
  </scstep>
  <scstep>
   <time name="dav">    1.86    1.86</time>
   <time name="total">    1.86    1.86</time>
   <energy>
    <i name="e_fr_energy">   -371.39013764 </i>
    <i name="e_wo_entrp">   -371.39013764 </i>
    <i name="e_0_energy">   -371.39013764 </i>
   </energy>
  </scstep>
  <scstep>
   <time name="dav">    1.86    1.86</time>
   <time name="total">    1.86    1.86</time>
   <energy>
    <i name="e_fr_energy">   -371.39013764 </i>
    <i name="e_wo_entrp">   -371.39013764 </i>
    <i name="e_0_energy">   -371.39013764 </i>
   </energy>
  </scstep>
  <scstep>
   <time name="dav">    1.80    1.80</time>
   <time name="total">    2.01    2.04</time>
   <energy>
    <i name="e_fr_energy">   -371.39013764 </i>
    <i name="e_wo_entrp">   -371.39013764 </i>
    <i name="e_0_energy">   -371.39013764 </i>
   </energy>
  </scstep>
  <scstep>
   <time name="diag">    0.39    0.39</time>
   <time name="diis">    1.58    1.58</time>
   <time name="orth">    0.06    0.07</time>
   <time name="total">    2.41    2.47</time>
   <energy>
    <i name="e_fr_energy">   -333.40919124 </i>
    <i name="e_wo_entrp">   -333.40919124 </i>
    <i name="e_0_energy">   -333.40919124 </i>
   </energy>
  </scstep>
  <scstep>
   <time name="diag">    0.39    0.39</time>
   <time name="diis">    1.41    1.41</time>
   <time name="orth">    0.07    0.07</time>
   <time name="total">    2.26    2.30</time>
   <energy>
    <i name="e_fr_energy">   -332.56727051 </i>
    <i name="e_wo_entrp">   -332.56727051 </i>
    <i name="e_0_energy">   -332.56727051 </i>
   </energy>
  </scstep>
  <scstep>
   <time name="diag">    0.38    0.39</time>
   <time name="diis">    1.42    1.42</time>
   <time name="orth">    0.07    0.07</time>
   <time name="total">    2.26    2.30</time>
   <energy>
    <i name="e_fr_energy">   -332.25376425 </i>
    <i name="e_wo_entrp">   -332.25376425 </i>
    <i name="e_0_energy">   -332.25376425 </i>
   </energy>
  </scstep>
  <scstep>
   <time name="diag">    0.38    0.38</time>
   <time name="diis">    1.42    1.42</time>
   <time name="orth">    0.07    0.07</time>
   <time name="total">    2.26    2.30</time>
   <energy>
    <i name="e_fr_energy">   -332.22442672 </i>
    <i name="e_wo_entrp">   -332.22442672 </i>
    <i name="e_0_energy">   -332.22442672 </i>
   </energy>
  </scstep>
  <scstep>
   <time name="diag">    0.38    0.38</time>
   <time name="diis">    1.42    1.42</time>
   <time name="orth">    0.07    0.07</time>
   <time name="total">    2.26    2.30</time>
   <energy>
    <i name="e_fr_energy">   -332.22014194 </i>
    <i name="e_wo_entrp">   -332.22014194 </i>
    <i name="e_0_energy">   -332.22014194 </i>
   </energy>
  </scstep>
  <scstep>
   <time name="diag">    0.38    0.39</time>
   <time name="diis">    1.41    1.41</time>
   <time name="orth">    0.06    0.07</time>
   <time name="total">    2.24    2.29</time>
   <energy>
    <i name="e_fr_energy">   -332.21808860 </i>
    <i name="e_wo_entrp">   -332.21808860 </i>
    <i name="e_0_energy">   -332.21808860 </i>
   </energy>
  </scstep>
  <scstep>
   <time name="diag">    0.38    0.39</time>
   <time name="diis">    1.38    1.38</time>
   <time name="orth">    0.07    0.07</time>
   <time name="total">    2.22    2.27</time>
   <energy>
    <i name="e_fr_energy">   -332.22083050 </i>
    <i name="e_wo_entrp">   -332.22083050 </i>
    <i name="e_0_energy">   -332.22083050 </i>
   </energy>
  </scstep>
  <scstep>
   <time name="diag">    0.39    0.39</time>
   <time name="diis">    1.42    1.42</time>
   <time name="orth">    0.07    0.07</time>
   <time name="total">    2.26    2.31</time>
   <energy>
    <i name="e_fr_energy">   -332.22270551 </i>
    <i name="e_wo_entrp">   -332.22270551 </i>
    <i name="e_0_energy">   -332.22270551 </i>
   </energy>
  </scstep>
  <scstep>
   <time name="diag">    0.38    0.39</time>
   <time name="diis">    1.37    1.37</time>
   <time name="orth">    0.07    0.07</time>
   <time name="total">    2.22    2.26</time>
   <energy>
    <i name="e_fr_energy">   -332.22524977 </i>
    <i name="e_wo_entrp">   -332.22524977 </i>
    <i name="e_0_energy">   -332.22524977 </i>
   </energy>
  </scstep>
  <scstep>
   <time name="diag">    0.41    0.41</time>
   <time name="diis">    1.42    1.41</time>
   <time name="orth">    0.06    0.07</time>
   <time name="total">    2.29    2.32</time>
   <energy>
    <i name="e_fr_energy">   -332.22570756 </i>
    <i name="e_wo_entrp">   -332.22570756 </i>
    <i name="e_0_energy">   -332.22570756 </i>
   </energy>
  </scstep>
  <scstep>
   <time name="diag">    0.39    0.39</time>
   <time name="diis">    1.35    1.35</time>
   <time name="orth">    0.07    0.07</time>
   <time name="total">    2.20    2.30</time>
   <energy>
    <i name="e_fr_energy">   -332.22633206 </i>
    <i name="e_wo_entrp">   -332.22633206 </i>
    <i name="e_0_energy">   -332.22633206 </i>
   </energy>
  </scstep>
  <scstep>
   <time name="diag">    0.39    0.39</time>
   <time name="diis">    1.31    1.31</time>
   <time name="orth">    0.07    0.07</time>
   <time name="total">    2.16    2.21</time>
   <energy>
    <i name="e_fr_energy">   -332.22644991 </i>
    <i name="e_wo_entrp">   -332.22644991 </i>
    <i name="e_0_energy">   -332.22644991 </i>
   </energy>
  </scstep>
  <scstep>
   <time name="diag">    0.38    0.39</time>
   <time name="diis">    1.22    1.22</time>
   <time name="orth">    0.06    0.07</time>
   <time name="total">    2.04    2.10</time>
   <energy>
    <i name="e_fr_energy">   -332.22668561 </i>
    <i name="e_wo_entrp">   -332.22668561 </i>
    <i name="e_0_energy">   -332.22668561 </i>
   </energy>
  </scstep>
  <scstep>
   <time name="diag">    0.38    0.39</time>
   <time name="diis">    1.17    1.17</time>
   <time name="orth">    0.07    0.07</time>
   <time name="total">    2.01    2.06</time>
   <energy>
    <i name="e_fr_energy">   -332.22677617 </i>
    <i name="e_wo_entrp">   -332.22677617 </i>
    <i name="e_0_energy">   -332.22677617 </i>
   </energy>
  </scstep>
  <scstep>
   <time name="diag">    0.38    0.39</time>
   <time name="diis">    1.06    1.06</time>
   <time name="orth">    0.07    0.07</time>
   <time name="total">    1.89    1.94</time>
   <energy>
    <i name="e_fr_energy">   -332.22686236 </i>
    <i name="e_wo_entrp">   -332.22686236 </i>
    <i name="e_0_energy">   -332.22686236 </i>
   </energy>
  </scstep>
  <scstep>
   <time name="diag">    0.38    0.38</time>
   <time name="diis">    0.99    0.99</time>
   <time name="orth">    0.06    0.07</time>
   <time name="total">    1.82    1.87</time>
   <energy>
    <i name="e_fr_energy">   -332.22689342 </i>
    <i name="e_wo_entrp">   -332.22689342 </i>
    <i name="e_0_energy">   -332.22689342 </i>
   </energy>
  </scstep>
  <scstep>
   <time name="diag">    0.39    0.39</time>
   <time name="diis">    0.88    0.88</time>
   <time name="orth">    0.07    0.07</time>
   <time name="total">    1.72    1.77</time>
   <energy>
    <i name="e_fr_energy">   -332.22690186 </i>
    <i name="e_wo_entrp">   -332.22690186 </i>
    <i name="e_0_energy">   -332.22690186 </i>
   </energy>
  </scstep>
  <scstep>
   <time name="diag">    0.38    0.39</time>
   <time name="diis">    0.92    0.92</time>
   <time name="orth">    0.06    0.07</time>
   <time name="total">    1.77    1.81</time>
   <energy>
    <i name="e_fr_energy">   -332.22690357 </i>
    <i name="e_wo_entrp">   -332.22690357 </i>
    <i name="e_0_energy">   -332.22690357 </i>
   </energy>
  </scstep>
  <scstep>
   <time name="diag">    0.39    0.39</time>
   <time name="diis">    0.90    0.90</time>
   <time name="orth">    0.07    0.07</time>
   <time name="total">    1.54    1.56</time>
   <energy>
    <i name="alphaZ">     84.52120492 </i>
    <i name="ewald">  33448.71583108 </i>
    <i name="hartreedc"> -44071.44150505 </i>
    <i name="XCdc">    638.85421077 </i>
    <i name="pawpsdc">  27822.49032419 </i>
    <i name="pawaedc"> -27663.40593496 </i>
    <i name="eentropy">     -0.00000000 </i>
    <i name="bandstr">  -2404.47580225 </i>
    <i name="atom">  11812.51476710 </i>
    <i name="e_fr_energy">   -332.22690421 </i>
    <i name="e_wo_entrp">   -332.22690421 </i>
    <i name="e_0_energy">   -332.22690421 </i>
   </energy>
  </scstep>
  <structure>
   <crystal>
    <varray name="basis" >
     <v>       4.91694834      -8.51640434       0.00000000 </v>
     <v>       4.91694834       8.51640434       0.00000000 </v>
     <v>       0.00000000       0.00000000      20.44520000 </v>
    </varray>
    <i name="volume">   1712.27405710 </i>
    <varray name="rec_basis" >
     <v>       0.10168909      -0.05871022       0.00000000 </v>
     <v>       0.10168909       0.05871022       0.00000000 </v>
     <v>       0.00000000       0.00000000       0.04891124 </v>
    </varray>
   </crystal>
   <varray name="positions" >
    <v>       0.23113547       0.48384641       0.17732646 </v>
    <v>       0.49447968       0.22462060       0.08840076 </v>
    <v>       0.26718929       0.26718891       0.00000028 </v>
    <v>       0.73094173       0.48413489       0.17730675 </v>
    <v>       0.99444756       0.22443545       0.08842104 </v>
    <v>       0.76719015       0.26718923       0.00000028 </v>
    <v>       0.73111347       0.98384838       0.17732367 </v>
    <v>       0.99444069       0.72458229       0.08839946 </v>
    <v>       0.76718946       0.76718908       0.00000028 </v>
    <v>       0.23115187       0.98401380       0.17734617 </v>
    <v>       0.49444078       0.72439963       0.08841476 </v>
    <v>       0.26718982       0.76718957       0.00000028 </v>
    <v>       0.17405977       0.09342980       0.21463483 </v>
    <v>       0.34519370       0.06126696       0.11369364 </v>
    <v>       0.43346230       0.29983328       0.03245187 </v>
    <v>       0.12903271       0.19594535       0.05637022 </v>
    <v>       0.31688557       0.41396420       0.22562173 </v>
    <v>       0.06505217       0.33586647       0.15280073 </v>
    <v>       0.67397910       0.09315561       0.21468536 </v>
    <v>       0.84512421       0.06104591       0.11366120 </v>
    <v>       0.93334230       0.29968081       0.03252186 </v>
    <v>       0.62904197       0.19609476       0.05637115 </v>
    <v>       0.81668349       0.41432056       0.22565960 </v>
    <v>       0.56493021       0.33607896       0.15276875 </v>
    <v>       0.67375543       0.59343403       0.21464147 </v>
    <v>       0.84494876       0.56135377       0.11365629 </v>
    <v>       0.93351595       0.79992129       0.03246339 </v>
    <v>       0.62891606       0.69584866       0.05630524 </v>
    <v>       0.81690801       0.91407577       0.22566712 </v>
    <v>       0.56511914       0.83584149       0.15277658 </v>
    <v>       0.17412153       0.59327942       0.21464452 </v>
    <v>       0.34522756       0.56098233       0.11367742 </v>
    <v>       0.43334131       0.79975663       0.03255873 </v>
    <v>       0.12879746       0.69578436       0.05630430 </v>
    <v>       0.31705078       0.91432175       0.22567691 </v>
    <v>       0.06510076       0.83596356       0.15278803 </v>
    <v>       0.29275157       0.91917086       0.97242385 </v>
    <v>       0.79275161       0.91916998       0.97242385 </v>
    <v>       0.79275190       0.41917053       0.97242385 </v>
    <v>       0.29275144       0.41916981       0.97242385 </v>
    <v>       0.21010715       0.64766270       0.94630035 </v>
    <v>       0.71010689       0.14766295       0.94630035 </v>
    <v>       0.71010773       0.64766330       0.94630035 </v>
    <v>       0.21010756       0.14766313       0.94630035 </v>
    <v>       0.43272052       0.97381494       0.22609812 </v>
    <v>       0.93256639       0.97328111       0.22605844 </v>
    <v>       0.93231753       0.47354416       0.22609419 </v>
    <v>       0.43254946       0.47311835       0.22593313 </v>
    <v>       0.23907283       0.70829852       0.22150121 </v>
    <v>       0.73886590       0.20818414       0.22150279 </v>
    <v>       0.73866137       0.70847229       0.22156669 </v>
    <v>       0.23890211       0.20855863       0.22138096 </v>
   </varray>
  </structure>
  <varray name="forces" >
   <v>      -0.00342741      -0.00280402      -0.00945546 </v>
   <v>      -0.00887729       0.00109079       0.00607367 </v>
   <v>      -0.13210826       0.27997203      -0.38150233 </v>
   <v>      -0.00358883      -0.00572174       0.00568552 </v>
   <v>       0.00196399       0.00038941       0.00437850 </v>
   <v>      -0.13180138       0.28089788      -0.37708498 </v>
   <v>      -0.00086571      -0.00682309      -0.00347700 </v>
   <v>       0.00167448      -0.00404884       0.00251287 </v>
   <v>      -0.12610728       0.27440394      -0.38523213 </v>
   <v>      -0.00148862      -0.00111776      -0.00689504 </v>
   <v>       0.00162422       0.00177342       0.00366472 </v>
   <v>      -0.14446121       0.28262260      -0.37010433 </v>
   <v>      -0.00989429      -0.01232250      -0.00055845 </v>
   <v>       0.00014810       0.00263268      -0.00519387 </v>
   <v>      -0.00446948      -0.00304471       0.00305937 </v>
   <v>       0.00215824       0.00622520       0.00000672 </v>
   <v>      -0.01106285       0.00627880       0.00413524 </v>
   <v>      -0.00476072      -0.00182783      -0.00784230 </v>
   <v>      -0.00718539      -0.00970953      -0.00317860 </v>
   <v>       0.00208487       0.00457458       0.00354365 </v>
   <v>       0.00118300      -0.00573856       0.00141755 </v>
   <v>       0.00174116       0.00052241       0.00131071 </v>
   <v>      -0.01547200       0.00638164      -0.00158558 </v>
   <v>       0.00222487      -0.00383826      -0.00336456 </v>
   <v>      -0.01126348      -0.01532476      -0.00272101 </v>
   <v>       0.00163551      -0.00002446      -0.00089025 </v>
   <v>      -0.00775274       0.00430883       0.00307172 </v>
   <v>       0.00455297       0.00320083       0.00369587 </v>
   <v>      -0.01088389       0.00842446       0.00083650 </v>
   <v>      -0.00575011      -0.00183063      -0.00343404 </v>
   <v>      -0.00824767      -0.01027195       0.00013587 </v>
   <v>      -0.00177072       0.00868618       0.00040864 </v>
   <v>      -0.00460961      -0.00279951       0.00109973 </v>
   <v>       0.01228881       0.00331432      -0.00080395 </v>
   <v>      -0.01168945       0.01008286      -0.00167287 </v>
   <v>       0.00522183      -0.00797185      -0.00406782 </v>
   <v>      -0.05698470      -0.09809459       0.19556344 </v>
   <v>      -0.05841023      -0.09629218       0.19440067 </v>
   <v>      -0.05641537      -0.09910841       0.19373254 </v>
   <v>      -0.05852172      -0.09648274       0.19428730 </v>
   <v>       0.19225310      -0.17385389       0.18461143 </v>
   <v>       0.18917708      -0.17200196       0.18616950 </v>
   <v>       0.19143324      -0.17365947       0.18473768 </v>
   <v>       0.18962504      -0.17193483       0.18546403 </v>
   <v>       0.00419391      -0.00733734      -0.00277495 </v>
   <v>       0.01169062      -0.00510884      -0.00306958 </v>
   <v>       0.01414750      -0.00782320      -0.00354442 </v>
   <v>       0.01369727      -0.00524099       0.00001731 </v>
   <v>       0.01656581       0.00539824       0.00379016 </v>
   <v>       0.01675849       0.00887227       0.00418020 </v>
   <v>       0.01185927       0.00204128       0.00092712 </v>
   <v>       0.00796701       0.00006379       0.00553531 </v>
  </varray>
  <varray name="stress" >
   <v>      -7.62638424       3.31406808      -0.65739100 </v>
   <v>       3.31406810      -6.63579858       0.76595329 </v>
   <v>      -0.65739099       0.76595331      -6.51260286 </v>
  </varray>
  <energy>
   <i name="e_fr_energy">   -336.26058723 </i>
   <i name="e_wo_entrp">   -336.26058723 </i>
   <i name="e_0_energy">     -0.00000000 </i>
  </energy>
  <time name="totalsc">   81.52   83.20</time>
  <eigenvalues>
   <array>
    <dimension dim="1">band</dimension>
    <dimension dim="2">kpoint</dimension>
    <dimension dim="3">spin</dimension>
    <field>eigene</field>
    <field>occ</field>
    <set>
     <set comment="spin 1">
      <set comment="kpoint 1">
       <r>  -24.2543    1.0000 </r>
       <r>  -24.0273    1.0000 </r>
       <r>  -23.7791    1.0000 </r>
       <r>  -23.7113    1.0000 </r>
       <r>  -23.6387    1.0000 </r>
       <r>  -23.5579    1.0000 </r>
       <r>  -23.4732    1.0000 </r>
       <r>  -23.1024    1.0000 </r>
       <r>  -22.9197    1.0000 </r>
       <r>  -22.9042    1.0000 </r>
       <r>  -22.8889    1.0000 </r>
       <r>  -22.8504    1.0000 </r>
       <r>  -22.7373    1.0000 </r>
       <r>  -22.7119    1.0000 </r>
       <r>  -22.6951    1.0000 </r>
       <r>  -22.5364    1.0000 </r>
       <r>  -22.5039    1.0000 </r>
       <r>  -22.5019    1.0000 </r>
       <r>  -22.4373    1.0000 </r>
       <r>  -22.4252    1.0000 </r>
       <r>  -22.4039    1.0000 </r>
       <r>  -22.3745    1.0000 </r>
       <r>  -22.3118    1.0000 </r>
       <r>  -22.2772    1.0000 </r>
       <r>  -13.7488    1.0000 </r>
       <r>  -13.4462    1.0000 </r>
       <r>  -13.2734    1.0000 </r>
       <r>  -12.6702    1.0000 </r>
       <r>  -12.5571    1.0000 </r>
       <r>  -12.3337    1.0000 </r>
       <r>  -12.3097    1.0000 </r>
       <r>  -12.0113    1.0000 </r>
       <r>  -12.0066    1.0000 </r>
       <r>  -11.6241    1.0000 </r>
       <r>  -11.2032    1.0000 </r>
       <r>  -11.0634    1.0000 </r>
       <r>  -10.9098    1.0000 </r>
       <r>  -10.8273    1.0000 </r>
       <r>  -10.6862    1.0000 </r>
       <r>  -10.5965    1.0000 </r>
       <r>  -10.4213    1.0000 </r>
       <r>  -10.3100    1.0000 </r>
       <r>  -10.2671    1.0000 </r>
       <r>  -10.2262    1.0000 </r>
       <r>  -10.1487    1.0000 </r>
       <r>  -10.1338    1.0000 </r>
       <r>  -10.0576    1.0000 </r>
       <r>   -9.8822    1.0000 </r>
       <r>   -9.0431    1.0000 </r>
       <r>   -8.8607    1.0000 </r>
       <r>   -8.5629    1.0000 </r>
       <r>   -8.4643    1.0000 </r>
       <r>   -8.2168    1.0000 </r>
       <r>   -8.1825    1.0000 </r>
       <r>   -8.1489    1.0000 </r>
       <r>   -8.0797    1.0000 </r>
       <r>   -8.0278    1.0000 </r>
       <r>   -8.0143    1.0000 </r>
       <r>   -8.0022    1.0000 </r>
       <r>   -7.9356    1.0000 </r>
       <r>   -7.7968    1.0000 </r>
       <r>   -7.7692    1.0000 </r>
       <r>   -7.6409    1.0000 </r>
       <r>   -7.4269    1.0000 </r>
       <r>   -7.2934    1.0000 </r>
       <r>   -7.2010    1.0000 </r>
       <r>   -7.1986    1.0000 </r>
       <r>   -7.1824    1.0000 </r>
       <r>   -7.0464    1.0000 </r>
       <r>   -7.0237    1.0000 </r>
       <r>   -6.9929    1.0000 </r>
       <r>   -6.9524    1.0000 </r>
       <r>   -6.9278    1.0000 </r>
       <r>   -6.8492    1.0000 </r>
       <r>   -6.7862    1.0000 </r>
       <r>   -6.7121    1.0000 </r>
       <r>   -6.6299    1.0000 </r>
       <r>   -6.5836    1.0000 </r>
       <r>   -6.5560    1.0000 </r>
       <r>   -6.5260    1.0000 </r>
       <r>   -6.4768    1.0000 </r>
       <r>   -6.4381    1.0000 </r>
       <r>   -6.3946    1.0000 </r>
       <r>   -6.3830    1.0000 </r>
       <r>   -6.2092    1.0000 </r>
       <r>   -6.2011    1.0000 </r>
       <r>   -6.1783    1.0000 </r>
       <r>   -6.1143    1.0000 </r>
       <r>   -6.0931    1.0000 </r>
       <r>   -5.9276    1.0000 </r>
       <r>   -5.8030    1.0000 </r>
       <r>   -5.7985    1.0000 </r>
       <r>   -5.7953    1.0000 </r>
       <r>   -5.6284    1.0000 </r>
       <r>   -5.6015    1.0000 </r>
       <r>   -5.5950    1.0000 </r>
       <r>   -5.3112    1.0000 </r>
       <r>   -5.3059    1.0000 </r>
       <r>   -5.2769    1.0000 </r>
       <r>   -5.2680    1.0000 </r>
       <r>   -5.2399    1.0000 </r>
       <r>   -5.0733    1.0000 </r>
       <r>   -4.8914    1.0000 </r>
       <r>   -4.8494    1.0000 </r>
       <r>    0.7137    0.0000 </r>
       <r>    1.3926    0.0000 </r>
       <r>    1.6007    0.0000 </r>
       <r>    2.0244    0.0000 </r>
       <r>    2.0267    0.0000 </r>
       <r>    2.2982    0.0000 </r>
       <r>    2.3223    0.0000 </r>
       <r>    2.6369    0.0000 </r>
       <r>    2.7030    0.0000 </r>
       <r>    2.7036    0.0000 </r>
       <r>    2.8741    0.0000 </r>
       <r>    2.9339    0.0000 </r>
       <r>    2.9622    0.0000 </r>
       <r>    3.1173    0.0000 </r>
       <r>    3.1434    0.0000 </r>
       <r>    3.1903    0.0000 </r>
       <r>    3.1978    0.0000 </r>
       <r>    3.4172    0.0000 </r>
       <r>    3.5470    0.0000 </r>
       <r>    3.6031    0.0000 </r>
       <r>    3.6499    0.0000 </r>
       <r>    3.6911    0.0000 </r>
       <r>    3.7939    0.0000 </r>
       <r>    3.9283    0.0000 </r>
       <r>    3.9840    0.0000 </r>
       <r>    4.1556    0.0000 </r>
       <r>    4.2581    0.0000 </r>
       <r>    4.4012    0.0000 </r>
      </set>
      <set comment="kpoint 2">
       <r>  -24.1716    1.0000 </r>
       <r>  -23.9942    1.0000 </r>
       <r>  -23.9457    1.0000 </r>
       <r>  -23.8944    1.0000 </r>
       <r>  -23.4721    1.0000 </r>
       <r>  -23.4496    1.0000 </r>
       <r>  -23.4395    1.0000 </r>
       <r>  -23.2331    1.0000 </r>
       <r>  -22.9784    1.0000 </r>
       <r>  -22.9004    1.0000 </r>
       <r>  -22.8140    1.0000 </r>
       <r>  -22.7361    1.0000 </r>
       <r>  -22.7337    1.0000 </r>
       <r>  -22.6875    1.0000 </r>
       <r>  -22.6854    1.0000 </r>
       <r>  -22.5775    1.0000 </r>
       <r>  -22.5104    1.0000 </r>
       <r>  -22.4714    1.0000 </r>
       <r>  -22.4422    1.0000 </r>
       <r>  -22.4248    1.0000 </r>
       <r>  -22.4006    1.0000 </r>
       <r>  -22.3933    1.0000 </r>
       <r>  -22.3547    1.0000 </r>
       <r>  -22.3179    1.0000 </r>
       <r>  -13.5520    1.0000 </r>
       <r>  -13.4090    1.0000 </r>
       <r>  -13.3276    1.0000 </r>
       <r>  -13.0504    1.0000 </r>
       <r>  -12.4217    1.0000 </r>
       <r>  -12.4147    1.0000 </r>
       <r>  -12.3537    1.0000 </r>
       <r>  -12.1571    1.0000 </r>
       <r>  -11.5275    1.0000 </r>
       <r>  -11.4592    1.0000 </r>
       <r>  -11.2132    1.0000 </r>
       <r>  -11.1639    1.0000 </r>
       <r>  -10.9760    1.0000 </r>
       <r>  -10.9065    1.0000 </r>
       <r>  -10.7511    1.0000 </r>
       <r>  -10.6485    1.0000 </r>
       <r>  -10.4323    1.0000 </r>
       <r>  -10.3523    1.0000 </r>
       <r>  -10.3011    1.0000 </r>
       <r>  -10.2794    1.0000 </r>
       <r>  -10.0878    1.0000 </r>
       <r>  -10.0541    1.0000 </r>
       <r>  -10.0503    1.0000 </r>
       <r>   -9.9619    1.0000 </r>
       <r>   -8.8250    1.0000 </r>
       <r>   -8.7040    1.0000 </r>
       <r>   -8.4933    1.0000 </r>
       <r>   -8.3843    1.0000 </r>
       <r>   -8.3397    1.0000 </r>
       <r>   -8.2399    1.0000 </r>
       <r>   -8.2014    1.0000 </r>
       <r>   -8.1826    1.0000 </r>
       <r>   -8.0673    1.0000 </r>
       <r>   -8.0409    1.0000 </r>
       <r>   -8.0136    1.0000 </r>
       <r>   -7.8587    1.0000 </r>
       <r>   -7.8052    1.0000 </r>
       <r>   -7.7782    1.0000 </r>
       <r>   -7.7684    1.0000 </r>
       <r>   -7.4754    1.0000 </r>
       <r>   -7.3876    1.0000 </r>
       <r>   -7.3130    1.0000 </r>
       <r>   -7.2230    1.0000 </r>
       <r>   -7.1872    1.0000 </r>
       <r>   -7.0262    1.0000 </r>
       <r>   -6.9705    1.0000 </r>
       <r>   -6.9462    1.0000 </r>
       <r>   -6.9130    1.0000 </r>
       <r>   -6.8567    1.0000 </r>
       <r>   -6.7855    1.0000 </r>
       <r>   -6.7240    1.0000 </r>
       <r>   -6.7106    1.0000 </r>
       <r>   -6.5866    1.0000 </r>
       <r>   -6.5591    1.0000 </r>
       <r>   -6.5498    1.0000 </r>
       <r>   -6.5221    1.0000 </r>
       <r>   -6.4250    1.0000 </r>
       <r>   -6.4203    1.0000 </r>
       <r>   -6.4070    1.0000 </r>
       <r>   -6.3911    1.0000 </r>
       <r>   -6.1729    1.0000 </r>
       <r>   -6.1678    1.0000 </r>
       <r>   -6.1488    1.0000 </r>
       <r>   -6.1274    1.0000 </r>
       <r>   -6.0756    1.0000 </r>
       <r>   -5.9074    1.0000 </r>
       <r>   -5.8564    1.0000 </r>
       <r>   -5.8257    1.0000 </r>
       <r>   -5.7989    1.0000 </r>
       <r>   -5.7378    1.0000 </r>
       <r>   -5.6393    1.0000 </r>
       <r>   -5.6358    1.0000 </r>
       <r>   -5.3240    1.0000 </r>
       <r>   -5.3164    1.0000 </r>
       <r>   -5.2446    1.0000 </r>
       <r>   -5.2357    1.0000 </r>
       <r>   -5.1792    1.0000 </r>
       <r>   -5.1074    1.0000 </r>
       <r>   -4.8947    1.0000 </r>
       <r>   -4.8689    1.0000 </r>
       <r>    1.0569    0.0000 </r>
       <r>    1.4438    0.0000 </r>
       <r>    1.6995    0.0000 </r>
       <r>    1.9895    0.0000 </r>
       <r>    2.0334    0.0000 </r>
       <r>    2.0389    0.0000 </r>
       <r>    2.1805    0.0000 </r>
       <r>    2.4416    0.0000 </r>
       <r>    2.5089    0.0000 </r>
       <r>    2.5143    0.0000 </r>
       <r>    2.6530    0.0000 </r>
       <r>    2.7796    0.0000 </r>
       <r>    2.8387    0.0000 </r>
       <r>    2.9494    0.0000 </r>
       <r>    3.0437    0.0000 </r>
       <r>    3.1125    0.0000 </r>
       <r>    3.3703    0.0000 </r>
       <r>    3.5057    0.0000 </r>
       <r>    3.6112    0.0000 </r>
       <r>    3.6742    0.0000 </r>
       <r>    3.7360    0.0000 </r>
       <r>    3.9364    0.0000 </r>
       <r>    3.9598    0.0000 </r>
       <r>    4.0315    0.0000 </r>
       <r>    4.1535    0.0000 </r>
       <r>    4.4242    0.0000 </r>
       <r>    4.4560    0.0000 </r>
       <r>    4.5109    0.0000 </r>
      </set>
      <set comment="kpoint 3">
       <r>  -24.1788    1.0000 </r>
       <r>  -23.9845    1.0000 </r>
       <r>  -23.9768    1.0000 </r>
       <r>  -23.8575    1.0000 </r>
       <r>  -23.5239    1.0000 </r>
       <r>  -23.4772    1.0000 </r>
       <r>  -23.3709    1.0000 </r>
       <r>  -23.1664    1.0000 </r>
       <r>  -22.9131    1.0000 </r>
       <r>  -22.8960    1.0000 </r>
       <r>  -22.8900    1.0000 </r>
       <r>  -22.8017    1.0000 </r>
       <r>  -22.7953    1.0000 </r>
       <r>  -22.7531    1.0000 </r>
       <r>  -22.6333    1.0000 </r>
       <r>  -22.5099    1.0000 </r>
       <r>  -22.4998    1.0000 </r>
       <r>  -22.4923    1.0000 </r>
       <r>  -22.4527    1.0000 </r>
       <r>  -22.4499    1.0000 </r>
       <r>  -22.4159    1.0000 </r>
       <r>  -22.3946    1.0000 </r>
       <r>  -22.3046    1.0000 </r>
       <r>  -22.2889    1.0000 </r>
       <r>  -13.6375    1.0000 </r>
       <r>  -13.4023    1.0000 </r>
       <r>  -13.3253    1.0000 </r>
       <r>  -13.0012    1.0000 </r>
       <r>  -12.4866    1.0000 </r>
       <r>  -12.3653    1.0000 </r>
       <r>  -12.0741    1.0000 </r>
       <r>  -12.0191    1.0000 </r>
       <r>  -11.9223    1.0000 </r>
       <r>  -11.6882    1.0000 </r>
       <r>  -11.1560    1.0000 </r>
       <r>  -11.0743    1.0000 </r>
       <r>  -10.8702    1.0000 </r>
       <r>  -10.8394    1.0000 </r>
       <r>  -10.8301    1.0000 </r>
       <r>  -10.6242    1.0000 </r>
       <r>  -10.4676    1.0000 </r>
       <r>  -10.3735    1.0000 </r>
       <r>  -10.2332    1.0000 </r>
       <r>  -10.2171    1.0000 </r>
       <r>  -10.0806    1.0000 </r>
       <r>  -10.0706    1.0000 </r>
       <r>  -10.0496    1.0000 </r>
       <r>   -9.9688    1.0000 </r>
       <r>   -9.0092    1.0000 </r>
       <r>   -8.9253    1.0000 </r>
       <r>   -8.4118    1.0000 </r>
       <r>   -8.3733    1.0000 </r>
       <r>   -8.2504    1.0000 </r>
       <r>   -8.2471    1.0000 </r>
       <r>   -8.1412    1.0000 </r>
       <r>   -8.1125    1.0000 </r>
       <r>   -8.0365    1.0000 </r>
       <r>   -8.0187    1.0000 </r>
       <r>   -7.9227    1.0000 </r>
       <r>   -7.8771    1.0000 </r>
       <r>   -7.8336    1.0000 </r>
       <r>   -7.7927    1.0000 </r>
       <r>   -7.6908    1.0000 </r>
       <r>   -7.5024    1.0000 </r>
       <r>   -7.2867    1.0000 </r>
       <r>   -7.2739    1.0000 </r>
       <r>   -7.2596    1.0000 </r>
       <r>   -7.1953    1.0000 </r>
       <r>   -7.0013    1.0000 </r>
       <r>   -6.9749    1.0000 </r>
       <r>   -6.9628    1.0000 </r>
       <r>   -6.9623    1.0000 </r>
       <r>   -6.8815    1.0000 </r>
       <r>   -6.8607    1.0000 </r>
       <r>   -6.7078    1.0000 </r>
       <r>   -6.6827    1.0000 </r>
       <r>   -6.6152    1.0000 </r>
       <r>   -6.6012    1.0000 </r>
       <r>   -6.5728    1.0000 </r>
       <r>   -6.5623    1.0000 </r>
       <r>   -6.4606    1.0000 </r>
       <r>   -6.4501    1.0000 </r>
       <r>   -6.3762    1.0000 </r>
       <r>   -6.3513    1.0000 </r>
       <r>   -6.2107    1.0000 </r>
       <r>   -6.2040    1.0000 </r>
       <r>   -6.1974    1.0000 </r>
       <r>   -6.1666    1.0000 </r>
       <r>   -5.9714    1.0000 </r>
       <r>   -5.9190    1.0000 </r>
       <r>   -5.8433    1.0000 </r>
       <r>   -5.8349    1.0000 </r>
       <r>   -5.7786    1.0000 </r>
       <r>   -5.6850    1.0000 </r>
       <r>   -5.6074    1.0000 </r>
       <r>   -5.5967    1.0000 </r>
       <r>   -5.3013    1.0000 </r>
       <r>   -5.2890    1.0000 </r>
       <r>   -5.2846    1.0000 </r>
       <r>   -5.2812    1.0000 </r>
       <r>   -5.1620    1.0000 </r>
       <r>   -5.0319    1.0000 </r>
       <r>   -4.9824    1.0000 </r>
       <r>   -4.9150    1.0000 </r>
       <r>    1.0479    0.0000 </r>
       <r>    1.3843    0.0000 </r>
       <r>    1.6746    0.0000 </r>
       <r>    1.7447    0.0000 </r>
       <r>    1.8572    0.0000 </r>
       <r>    2.2031    0.0000 </r>
       <r>    2.3549    0.0000 </r>
       <r>    2.5164    0.0000 </r>
       <r>    2.5963    0.0000 </r>
       <r>    2.6615    0.0000 </r>
       <r>    2.8718    0.0000 </r>
       <r>    2.9490    0.0000 </r>
       <r>    3.0103    0.0000 </r>
       <r>    3.0135    0.0000 </r>
       <r>    3.1658    0.0000 </r>
       <r>    3.2160    0.0000 </r>
       <r>    3.2213    0.0000 </r>
       <r>    3.4394    0.0000 </r>
       <r>    3.6037    0.0000 </r>
       <r>    3.6664    0.0000 </r>
       <r>    3.7848    0.0000 </r>
       <r>    3.8039    0.0000 </r>
       <r>    3.9928    0.0000 </r>
       <r>    4.0340    0.0000 </r>
       <r>    4.1568    0.0000 </r>
       <r>    4.2396    0.0000 </r>
       <r>    4.2613    0.0000 </r>
       <r>    4.3007    0.0000 </r>
      </set>
      <set comment="kpoint 4">
       <r>  -24.0994    1.0000 </r>
       <r>  -24.0827    1.0000 </r>
       <r>  -23.9968    1.0000 </r>
       <r>  -23.8217    1.0000 </r>
       <r>  -23.5178    1.0000 </r>
       <r>  -23.4117    1.0000 </r>
       <r>  -23.3928    1.0000 </r>
       <r>  -23.3166    1.0000 </r>
       <r>  -22.9161    1.0000 </r>
       <r>  -22.8608    1.0000 </r>
       <r>  -22.8213    1.0000 </r>
       <r>  -22.7928    1.0000 </r>
       <r>  -22.7403    1.0000 </r>
       <r>  -22.7182    1.0000 </r>
       <r>  -22.6369    1.0000 </r>
       <r>  -22.5624    1.0000 </r>
       <r>  -22.5115    1.0000 </r>
       <r>  -22.4557    1.0000 </r>
       <r>  -22.4522    1.0000 </r>
       <r>  -22.4421    1.0000 </r>
       <r>  -22.4301    1.0000 </r>
       <r>  -22.3648    1.0000 </r>
       <r>  -22.3422    1.0000 </r>
       <r>  -22.3409    1.0000 </r>
       <r>  -13.5636    1.0000 </r>
       <r>  -13.3925    1.0000 </r>
       <r>  -13.2730    1.0000 </r>
       <r>  -13.1354    1.0000 </r>
       <r>  -12.5177    1.0000 </r>
       <r>  -12.3027    1.0000 </r>
       <r>  -12.2686    1.0000 </r>
       <r>  -12.2236    1.0000 </r>
       <r>  -11.5403    1.0000 </r>
       <r>  -11.4364    1.0000 </r>
       <r>  -11.1976    1.0000 </r>
       <r>  -11.1845    1.0000 </r>
       <r>  -10.9435    1.0000 </r>
       <r>  -10.8273    1.0000 </r>
       <r>  -10.8085    1.0000 </r>
       <r>  -10.6422    1.0000 </r>
       <r>  -10.5027    1.0000 </r>
       <r>  -10.3984    1.0000 </r>
       <r>  -10.3256    1.0000 </r>
       <r>  -10.2319    1.0000 </r>
       <r>  -10.0735    1.0000 </r>
       <r>  -10.0451    1.0000 </r>
       <r>  -10.0318    1.0000 </r>
       <r>  -10.0172    1.0000 </r>
       <r>   -8.7749    1.0000 </r>
       <r>   -8.7638    1.0000 </r>
       <r>   -8.4569    1.0000 </r>
       <r>   -8.3689    1.0000 </r>
       <r>   -8.3507    1.0000 </r>
       <r>   -8.2842    1.0000 </r>
       <r>   -8.2539    1.0000 </r>
       <r>   -8.1644    1.0000 </r>
       <r>   -8.0951    1.0000 </r>
       <r>   -7.9370    1.0000 </r>
       <r>   -7.9015    1.0000 </r>
       <r>   -7.8820    1.0000 </r>
       <r>   -7.8535    1.0000 </r>
       <r>   -7.7607    1.0000 </r>
       <r>   -7.6935    1.0000 </r>
       <r>   -7.6371    1.0000 </r>
       <r>   -7.3145    1.0000 </r>
       <r>   -7.2803    1.0000 </r>
       <r>   -7.2782    1.0000 </r>
       <r>   -7.2109    1.0000 </r>
       <r>   -7.0214    1.0000 </r>
       <r>   -6.9927    1.0000 </r>
       <r>   -6.9100    1.0000 </r>
       <r>   -6.8982    1.0000 </r>
       <r>   -6.8199    1.0000 </r>
       <r>   -6.7748    1.0000 </r>
       <r>   -6.7651    1.0000 </r>
       <r>   -6.6539    1.0000 </r>
       <r>   -6.6529    1.0000 </r>
       <r>   -6.6112    1.0000 </r>
       <r>   -6.5816    1.0000 </r>
       <r>   -6.5612    1.0000 </r>
       <r>   -6.4551    1.0000 </r>
       <r>   -6.4085    1.0000 </r>
       <r>   -6.3681    1.0000 </r>
       <r>   -6.3534    1.0000 </r>
       <r>   -6.2202    1.0000 </r>
       <r>   -6.1338    1.0000 </r>
       <r>   -6.1192    1.0000 </r>
       <r>   -6.0971    1.0000 </r>
       <r>   -5.9719    1.0000 </r>
       <r>   -5.9621    1.0000 </r>
       <r>   -5.8984    1.0000 </r>
       <r>   -5.8150    1.0000 </r>
       <r>   -5.7641    1.0000 </r>
       <r>   -5.7182    1.0000 </r>
       <r>   -5.7010    1.0000 </r>
       <r>   -5.6322    1.0000 </r>
       <r>   -5.3300    1.0000 </r>
       <r>   -5.2855    1.0000 </r>
       <r>   -5.2577    1.0000 </r>
       <r>   -5.2434    1.0000 </r>
       <r>   -5.1081    1.0000 </r>
       <r>   -5.0549    1.0000 </r>
       <r>   -4.9908    1.0000 </r>
       <r>   -4.9350    1.0000 </r>
       <r>    1.4276    0.0000 </r>
       <r>    1.5914    0.0000 </r>
       <r>    1.6245    0.0000 </r>
       <r>    1.6671    0.0000 </r>
       <r>    1.8247    0.0000 </r>
       <r>    1.8897    0.0000 </r>
       <r>    2.1217    0.0000 </r>
       <r>    2.3048    0.0000 </r>
       <r>    2.3442    0.0000 </r>
       <r>    2.5888    0.0000 </r>
       <r>    2.8073    0.0000 </r>
       <r>    2.8681    0.0000 </r>
       <r>    3.0498    0.0000 </r>
       <r>    3.2067    0.0000 </r>
       <r>    3.2418    0.0000 </r>
       <r>    3.3798    0.0000 </r>
       <r>    3.4017    0.0000 </r>
       <r>    3.4204    0.0000 </r>
       <r>    3.6364    0.0000 </r>
       <r>    3.7425    0.0000 </r>
       <r>    3.7474    0.0000 </r>
       <r>    3.8877    0.0000 </r>
       <r>    3.9624    0.0000 </r>
       <r>    4.0286    0.0000 </r>
       <r>    4.3252    0.0000 </r>
       <r>    4.3742    0.0000 </r>
       <r>    4.4598    0.0000 </r>
       <r>    4.4891    0.0000 </r>
      </set>
      <set comment="kpoint 5">
       <r>  -24.2060    1.0000 </r>
       <r>  -24.0943    1.0000 </r>
       <r>  -23.7455    1.0000 </r>
       <r>  -23.7089    1.0000 </r>
       <r>  -23.6459    1.0000 </r>
       <r>  -23.6104    1.0000 </r>
       <r>  -23.4113    1.0000 </r>
       <r>  -23.2438    1.0000 </r>
       <r>  -22.9139    1.0000 </r>
       <r>  -22.8346    1.0000 </r>
       <r>  -22.8228    1.0000 </r>
       <r>  -22.7907    1.0000 </r>
       <r>  -22.7410    1.0000 </r>
       <r>  -22.7268    1.0000 </r>
       <r>  -22.6846    1.0000 </r>
       <r>  -22.5348    1.0000 </r>
       <r>  -22.5066    1.0000 </r>
       <r>  -22.4960    1.0000 </r>
       <r>  -22.4272    1.0000 </r>
       <r>  -22.4180    1.0000 </r>
       <r>  -22.3904    1.0000 </r>
       <r>  -22.3875    1.0000 </r>
       <r>  -22.3574    1.0000 </r>
       <r>  -22.3290    1.0000 </r>
       <r>  -13.6719    1.0000 </r>
       <r>  -13.5199    1.0000 </r>
       <r>  -13.1439    1.0000 </r>
       <r>  -12.8213    1.0000 </r>
       <r>  -12.5620    1.0000 </r>
       <r>  -12.5429    1.0000 </r>
       <r>  -12.2737    1.0000 </r>
       <r>  -12.1470    1.0000 </r>
       <r>  -11.6029    1.0000 </r>
       <r>  -11.4339    1.0000 </r>
       <r>  -11.2406    1.0000 </r>
       <r>  -11.1854    1.0000 </r>
       <r>  -10.8645    1.0000 </r>
       <r>  -10.7729    1.0000 </r>
       <r>  -10.7614    1.0000 </r>
       <r>  -10.6343    1.0000 </r>
       <r>  -10.4494    1.0000 </r>
       <r>  -10.3515    1.0000 </r>
       <r>  -10.3263    1.0000 </r>
       <r>  -10.3192    1.0000 </r>
       <r>  -10.1458    1.0000 </r>
       <r>  -10.0954    1.0000 </r>
       <r>  -10.0509    1.0000 </r>
       <r>   -9.9430    1.0000 </r>
       <r>   -8.8258    1.0000 </r>
       <r>   -8.6814    1.0000 </r>
       <r>   -8.5590    1.0000 </r>
       <r>   -8.3906    1.0000 </r>
       <r>   -8.3229    1.0000 </r>
       <r>   -8.2881    1.0000 </r>
       <r>   -8.2585    1.0000 </r>
       <r>   -8.2305    1.0000 </r>
       <r>   -8.0127    1.0000 </r>
       <r>   -7.9801    1.0000 </r>
       <r>   -7.9561    1.0000 </r>
       <r>   -7.9272    1.0000 </r>
       <r>   -7.8037    1.0000 </r>
       <r>   -7.7987    1.0000 </r>
       <r>   -7.6304    1.0000 </r>
       <r>   -7.4239    1.0000 </r>
       <r>   -7.3217    1.0000 </r>
       <r>   -7.2976    1.0000 </r>
       <r>   -7.1927    1.0000 </r>
       <r>   -7.1250    1.0000 </r>
       <r>   -7.0695    1.0000 </r>
       <r>   -7.0208    1.0000 </r>
       <r>   -7.0081    1.0000 </r>
       <r>   -6.9708    1.0000 </r>
       <r>   -6.8864    1.0000 </r>
       <r>   -6.7617    1.0000 </r>
       <r>   -6.7186    1.0000 </r>
       <r>   -6.7083    1.0000 </r>
       <r>   -6.6545    1.0000 </r>
       <r>   -6.6116    1.0000 </r>
       <r>   -6.6098    1.0000 </r>
       <r>   -6.5958    1.0000 </r>
       <r>   -6.4119    1.0000 </r>
       <r>   -6.3980    1.0000 </r>
       <r>   -6.3934    1.0000 </r>
       <r>   -6.3851    1.0000 </r>
       <r>   -6.1907    1.0000 </r>
       <r>   -6.1442    1.0000 </r>
       <r>   -6.0971    1.0000 </r>
       <r>   -6.0958    1.0000 </r>
       <r>   -6.0118    1.0000 </r>
       <r>   -5.9289    1.0000 </r>
       <r>   -5.8382    1.0000 </r>
       <r>   -5.8199    1.0000 </r>
       <r>   -5.7765    1.0000 </r>
       <r>   -5.6889    1.0000 </r>
       <r>   -5.6778    1.0000 </r>
       <r>   -5.6474    1.0000 </r>
       <r>   -5.3041    1.0000 </r>
       <r>   -5.2790    1.0000 </r>
       <r>   -5.2702    1.0000 </r>
       <r>   -5.2651    1.0000 </r>
       <r>   -5.1261    1.0000 </r>
       <r>   -5.0640    1.0000 </r>
       <r>   -4.9564    1.0000 </r>
       <r>   -4.9388    1.0000 </r>
       <r>    1.0355    0.0000 </r>
       <r>    1.5280    0.0000 </r>
       <r>    1.7292    0.0000 </r>
       <r>    1.7841    0.0000 </r>
       <r>    1.9587    0.0000 </r>
       <r>    2.0638    0.0000 </r>
       <r>    2.1251    0.0000 </r>
       <r>    2.4225    0.0000 </r>
       <r>    2.4438    0.0000 </r>
       <r>    2.5513    0.0000 </r>
       <r>    2.8848    0.0000 </r>
       <r>    2.8996    0.0000 </r>
       <r>    2.9220    0.0000 </r>
       <r>    3.0518    0.0000 </r>
       <r>    3.0970    0.0000 </r>
       <r>    3.2716    0.0000 </r>
       <r>    3.3733    0.0000 </r>
       <r>    3.4138    0.0000 </r>
       <r>    3.6220    0.0000 </r>
       <r>    3.6598    0.0000 </r>
       <r>    3.6984    0.0000 </r>
       <r>    3.9987    0.0000 </r>
       <r>    4.0339    0.0000 </r>
       <r>    4.0899    0.0000 </r>
       <r>    4.1007    0.0000 </r>
       <r>    4.1629    0.0000 </r>
       <r>    4.2947    0.0000 </r>
       <r>    4.4134    0.0000 </r>
      </set>
     </set>
    </set>
   </array>
  </eigenvalues>
  <separator name="orbital magnetization" >
   <v name="MAGDIPOLOUT">      0.00000000      0.00000000      0.00000000</v>
  </separator>
  <dos>
   <i name="efermi">     -4.69033586 </i>
   <total>
    <array>
     <dimension dim="1">gridpoints</dimension>
     <dimension dim="2">spin</dimension>
     <field>energy</field>
     <field>total</field>
     <field>integrated</field>
     <set>
      <set comment="spin 1">
       <r>   -25.6925     0.0000     0.0000 </r>
       <r>   -25.5871     0.0000     0.0000 </r>
       <r>   -25.4816     0.0000     0.0000 </r>
       <r>   -25.3761     0.0000     0.0000 </r>
       <r>   -25.2706     0.0000     0.0000 </r>
       <r>   -25.1652     0.0000     0.0000 </r>
       <r>   -25.0597     0.0000     0.0000 </r>
       <r>   -24.9542     0.0000     0.0000 </r>
       <r>   -24.8488     0.0000     0.0000 </r>
       <r>   -24.7433     0.0000     0.0000 </r>
       <r>   -24.6378     0.0000     0.0000 </r>
       <r>   -24.5323     0.0000     0.0000 </r>
       <r>   -24.4269     0.0000     0.0000 </r>
       <r>   -24.3214     0.0016     0.0002 </r>
       <r>   -24.2159     3.6235     0.3824 </r>
       <r>   -24.1104    13.7220     1.8296 </r>
       <r>   -24.0050    15.7125     3.4869 </r>
       <r>   -23.8995    19.2508     5.5173 </r>
       <r>   -23.7940    11.0382     6.6815 </r>
       <r>   -23.6886    11.5913     7.9041 </r>
       <r>   -23.5831    11.2748     9.0933 </r>
       <r>   -23.4776    15.7018    10.7494 </r>
       <r>   -23.3721    27.6629    13.6671 </r>
       <r>   -23.2667     8.1604    14.5278 </r>
       <r>   -23.1612    10.1560    15.5989 </r>
       <r>   -23.0557     3.7737    15.9970 </r>
       <r>   -22.9503     4.6955    16.4922 </r>
       <r>   -22.8448    38.5365    20.5568 </r>
       <r>   -22.7393    46.7792    25.4907 </r>
       <r>   -22.6338    38.6674    29.5690 </r>
       <r>   -22.5284    20.7328    31.7558 </r>
       <r>   -22.4229    73.9814    39.5588 </r>
       <r>   -22.3174    65.0727    46.4221 </r>
       <r>   -22.2119    14.9571    47.9997 </r>
       <r>   -22.1065     0.0028    48.0000 </r>
       <r>   -22.0010     0.0000    48.0000 </r>
       <r>   -21.8955     0.0000    48.0000 </r>
       <r>   -21.7901     0.0000    48.0000 </r>
       <r>   -21.6846     0.0000    48.0000 </r>
       <r>   -21.5791     0.0000    48.0000 </r>
       <r>   -21.4736     0.0000    48.0000 </r>
       <r>   -21.3682     0.0000    48.0000 </r>
       <r>   -21.2627     0.0000    48.0000 </r>
       <r>   -21.1572     0.0000    48.0000 </r>
       <r>   -21.0517     0.0000    48.0000 </r>
       <r>   -20.9463     0.0000    48.0000 </r>
       <r>   -20.8408     0.0000    48.0000 </r>
       <r>   -20.7353     0.0000    48.0000 </r>
       <r>   -20.6299     0.0000    48.0000 </r>
       <r>   -20.5244     0.0000    48.0000 </r>
       <r>   -20.4189     0.0000    48.0000 </r>
       <r>   -20.3134     0.0000    48.0000 </r>
       <r>   -20.2080     0.0000    48.0000 </r>
       <r>   -20.1025     0.0000    48.0000 </r>
       <r>   -19.9970     0.0000    48.0000 </r>
       <r>   -19.8916     0.0000    48.0000 </r>
       <r>   -19.7861     0.0000    48.0000 </r>
       <r>   -19.6806     0.0000    48.0000 </r>
       <r>   -19.5751     0.0000    48.0000 </r>
       <r>   -19.4697     0.0000    48.0000 </r>
       <r>   -19.3642     0.0000    48.0000 </r>
       <r>   -19.2587     0.0000    48.0000 </r>
       <r>   -19.1532     0.0000    48.0000 </r>
       <r>   -19.0478     0.0000    48.0000 </r>
       <r>   -18.9423     0.0000    48.0000 </r>
       <r>   -18.8368     0.0000    48.0000 </r>
       <r>   -18.7314     0.0000    48.0000 </r>
       <r>   -18.6259     0.0000    48.0000 </r>
       <r>   -18.5204     0.0000    48.0000 </r>
       <r>   -18.4149     0.0000    48.0000 </r>
       <r>   -18.3095     0.0000    48.0000 </r>
       <r>   -18.2040     0.0000    48.0000 </r>
       <r>   -18.0985     0.0000    48.0000 </r>
       <r>   -17.9930     0.0000    48.0000 </r>
       <r>   -17.8876     0.0000    48.0000 </r>
       <r>   -17.7821     0.0000    48.0000 </r>
       <r>   -17.6766     0.0000    48.0000 </r>
       <r>   -17.5712     0.0000    48.0000 </r>
       <r>   -17.4657     0.0000    48.0000 </r>
       <r>   -17.3602     0.0000    48.0000 </r>
       <r>   -17.2547     0.0000    48.0000 </r>
       <r>   -17.1493     0.0000    48.0000 </r>
       <r>   -17.0438     0.0000    48.0000 </r>
       <r>   -16.9383     0.0000    48.0000 </r>
       <r>   -16.8329     0.0000    48.0000 </r>
       <r>   -16.7274     0.0000    48.0000 </r>
       <r>   -16.6219     0.0000    48.0000 </r>
       <r>   -16.5164     0.0000    48.0000 </r>
       <r>   -16.4110     0.0000    48.0000 </r>
       <r>   -16.3055     0.0000    48.0000 </r>
       <r>   -16.2000     0.0000    48.0000 </r>
       <r>   -16.0945     0.0000    48.0000 </r>
       <r>   -15.9891     0.0000    48.0000 </r>
       <r>   -15.8836     0.0000    48.0000 </r>
       <r>   -15.7781     0.0000    48.0000 </r>
       <r>   -15.6727     0.0000    48.0000 </r>
       <r>   -15.5672     0.0000    48.0000 </r>
       <r>   -15.4617     0.0000    48.0000 </r>
       <r>   -15.3562     0.0000    48.0000 </r>
       <r>   -15.2508     0.0000    48.0000 </r>
       <r>   -15.1453     0.0000    48.0000 </r>
       <r>   -15.0398     0.0000    48.0000 </r>
       <r>   -14.9343     0.0000    48.0000 </r>
       <r>   -14.8289     0.0000    48.0000 </r>
       <r>   -14.7234     0.0000    48.0000 </r>
       <r>   -14.6179     0.0000    48.0000 </r>
       <r>   -14.5125     0.0000    48.0000 </r>
       <r>   -14.4070     0.0000    48.0000 </r>
       <r>   -14.3015     0.0000    48.0000 </r>
       <r>   -14.1960     0.0000    48.0000 </r>
       <r>   -14.0906     0.0000    48.0000 </r>
       <r>   -13.9851     0.0000    48.0000 </r>
       <r>   -13.8796     0.0000    48.0000 </r>
       <r>   -13.7741     0.2445    48.0258 </r>
       <r>   -13.6687     4.5227    48.5028 </r>
       <r>   -13.5632     9.2522    49.4787 </r>
       <r>   -13.4577     9.8352    50.5160 </r>
       <r>   -13.3523    14.8424    52.0815 </r>
       <r>   -13.2468    13.2963    53.4839 </r>
       <r>   -13.1413     4.6297    53.9722 </r>
       <r>   -13.0358     7.8736    54.8026 </r>
       <r>   -12.9304     5.0301    55.3331 </r>
       <r>   -12.8249     1.8232    55.5254 </r>
       <r>   -12.7194     2.4139    55.7800 </r>
       <r>   -12.6140     2.1167    56.0033 </r>
       <r>   -12.5085    13.6843    57.4466 </r>
       <r>   -12.4030    11.8559    58.6971 </r>
       <r>   -12.2975    17.1749    60.5086 </r>
       <r>   -12.1921    14.1290    61.9988 </r>
       <r>   -12.0866     9.6060    63.0120 </r>
       <r>   -11.9811    10.9277    64.1645 </r>
       <r>   -11.8756     4.7025    64.6605 </r>
       <r>   -11.7702     0.0586    64.6667 </r>
       <r>   -11.6647     3.7138    65.0584 </r>
       <r>   -11.5592     7.8007    65.8812 </r>
       <r>   -11.4538    11.5891    67.1035 </r>
       <r>   -11.3483     8.4999    68.0000 </r>
       <r>   -11.2428     2.4364    68.2570 </r>
       <r>   -11.1373    27.8158    71.1908 </r>
       <r>   -11.0319     7.4508    71.9766 </r>
       <r>   -10.9264     8.9427    72.9198 </r>
       <r>   -10.8209    25.6887    75.6293 </r>
       <r>   -10.7154    20.2793    77.7682 </r>
       <r>   -10.6100    17.6039    79.6249 </r>
       <r>   -10.5045     5.7166    80.2278 </r>
       <r>   -10.3990    18.8604    82.2171 </r>
       <r>   -10.2936    32.0511    85.5976 </r>
       <r>   -10.1881    22.3634    87.9563 </r>
       <r>   -10.0826    20.5873    90.1277 </r>
       <r>    -9.9771    43.4583    94.7114 </r>
       <r>    -9.8717    11.5632    95.9310 </r>
       <r>    -9.7662     0.6545    96.0000 </r>
       <r>    -9.6607     0.0000    96.0000 </r>
       <r>    -9.5553     0.0000    96.0000 </r>
       <r>    -9.4498     0.0000    96.0000 </r>
       <r>    -9.3443     0.0000    96.0000 </r>
       <r>    -9.2388     0.0000    96.0000 </r>
       <r>    -9.1334     0.0000    96.0000 </r>
       <r>    -9.0279     2.4063    96.2538 </r>
       <r>    -8.9224     6.2564    96.9137 </r>
       <r>    -8.8169     9.5843    97.9246 </r>
       <r>    -8.7115    13.0682    99.3029 </r>
       <r>    -8.6060     6.7094   100.0106 </r>
       <r>    -8.5005     7.9276   100.8467 </r>
       <r>    -8.3951    16.3700   102.5733 </r>
       <r>    -8.2896    30.3337   105.7727 </r>
       <r>    -8.1841    38.6857   109.8529 </r>
       <r>    -8.0786    23.9485   112.3788 </r>
       <r>    -7.9732    35.5556   116.1290 </r>
       <r>    -7.8677    32.4990   119.5567 </r>
       <r>    -7.7622    39.9635   123.7718 </r>
       <r>    -7.6567    16.0793   125.4677 </r>
       <r>    -7.5513     9.3053   126.4492 </r>
       <r>    -7.4458     9.0672   127.4055 </r>
       <r>    -7.3403    11.6495   128.6342 </r>
       <r>    -7.2349    39.6483   132.8160 </r>
       <r>    -7.1294    27.7065   135.7383 </r>
       <r>    -7.0239    17.6518   137.6001 </r>
       <r>    -6.9184    53.0151   143.1917 </r>
       <r>    -6.8130    32.0115   146.5680 </r>
       <r>    -6.7075    34.5679   150.2140 </r>
       <r>    -6.6020    45.1423   154.9753 </r>
       <r>    -6.4966    47.6743   160.0036 </r>
       <r>    -6.3911    47.2532   164.9875 </r>
       <r>    -6.2856    28.5607   167.9999 </r>
       <r>    -6.1801    26.9924   170.8468 </r>
       <r>    -6.0747    50.6739   176.1915 </r>
       <r>    -5.9692    15.0083   177.7745 </r>
       <r>    -5.8637    28.3814   180.7679 </r>
       <r>    -5.7582    46.9545   185.7203 </r>
       <r>    -5.6528    31.6817   189.0619 </r>
       <r>    -5.5473    27.7678   191.9906 </r>
       <r>    -5.4418     0.0891   192.0000 </r>
       <r>    -5.3364     4.5707   192.4821 </r>
       <r>    -5.2309    67.6592   199.6183 </r>
       <r>    -5.1254    17.8451   201.5004 </r>
       <r>    -5.0199    22.7157   203.8963 </r>
       <r>    -4.9145    23.9730   206.4248 </r>
       <r>    -4.8090    14.8647   207.9926 </r>
       <r>    -4.7035     0.0700   208.0000 </r>
       <r>    -4.5980     0.0000   208.0000 </r>
       <r>    -4.4926     0.0000   208.0000 </r>
       <r>    -4.3871     0.0000   208.0000 </r>
       <r>    -4.2816     0.0000   208.0000 </r>
       <r>    -4.1762     0.0000   208.0000 </r>
       <r>    -4.0707     0.0000   208.0000 </r>
       <r>    -3.9652     0.0000   208.0000 </r>
       <r>    -3.8597     0.0000   208.0000 </r>
       <r>    -3.7543     0.0000   208.0000 </r>
       <r>    -3.6488     0.0000   208.0000 </r>
       <r>    -3.5433     0.0000   208.0000 </r>
       <r>    -3.4379     0.0000   208.0000 </r>
       <r>    -3.3324     0.0000   208.0000 </r>
       <r>    -3.2269     0.0000   208.0000 </r>
       <r>    -3.1214     0.0000   208.0000 </r>
       <r>    -3.0160     0.0000   208.0000 </r>
       <r>    -2.9105     0.0000   208.0000 </r>
       <r>    -2.8050     0.0000   208.0000 </r>
       <r>    -2.6995     0.0000   208.0000 </r>
       <r>    -2.5941     0.0000   208.0000 </r>
       <r>    -2.4886     0.0000   208.0000 </r>
       <r>    -2.3831     0.0000   208.0000 </r>
       <r>    -2.2777     0.0000   208.0000 </r>
       <r>    -2.1722     0.0000   208.0000 </r>
       <r>    -2.0667     0.0000   208.0000 </r>
       <r>    -1.9612     0.0000   208.0000 </r>
       <r>    -1.8558     0.0000   208.0000 </r>
       <r>    -1.7503     0.0000   208.0000 </r>
       <r>    -1.6448     0.0000   208.0000 </r>
       <r>    -1.5393     0.0000   208.0000 </r>
       <r>    -1.4339     0.0000   208.0000 </r>
       <r>    -1.3284     0.0000   208.0000 </r>
       <r>    -1.2229     0.0000   208.0000 </r>
       <r>    -1.1175     0.0000   208.0000 </r>
       <r>    -1.0120     0.0000   208.0000 </r>
       <r>    -0.9065     0.0000   208.0000 </r>
       <r>    -0.8010     0.0000   208.0000 </r>
       <r>    -0.6956     0.0000   208.0000 </r>
       <r>    -0.5901     0.0000   208.0000 </r>
       <r>    -0.4846     0.0000   208.0000 </r>
       <r>    -0.3791     0.0000   208.0000 </r>
       <r>    -0.2737     0.0000   208.0000 </r>
       <r>    -0.1682     0.0000   208.0000 </r>
       <r>    -0.0627     0.0000   208.0000 </r>
       <r>     0.0427     0.0000   208.0000 </r>
       <r>     0.1482     0.0000   208.0000 </r>
       <r>     0.2537     0.0000   208.0000 </r>
       <r>     0.3592     0.0000   208.0000 </r>
       <r>     0.4646     0.0000   208.0000 </r>
       <r>     0.5701     0.0000   208.0000 </r>
       <r>     0.6756     0.0765   208.0081 </r>
       <r>     0.7810     2.0289   208.2221 </r>
       <r>     0.8865     0.0016   208.2222 </r>
       <r>     0.9920     0.1071   208.2335 </r>
       <r>     1.0975    12.3681   209.5380 </r>
       <r>     1.2029     0.1663   209.5556 </r>
       <r>     1.3084     0.0008   209.5556 </r>
       <r>     1.4139     7.0667   210.3010 </r>
       <r>     1.5194     9.1220   211.2631 </r>
       <r>     1.6248    10.8567   212.4082 </r>
       <r>     1.7303    18.0191   214.3087 </r>
       <r>     1.8358    13.3149   215.7131 </r>
       <r>     1.9412     9.9203   216.7594 </r>
       <r>     2.0467    17.7719   218.6338 </r>
       <r>     2.1522    14.7345   220.1879 </r>
       <r>     2.2577     8.8480   221.1211 </r>
       <r>     2.3631    14.4413   222.6443 </r>
       <r>     2.4686    14.1968   224.1417 </r>
       <r>     2.5741    18.6465   226.1083 </r>
       <r>     2.6796    17.1677   227.9191 </r>
       <r>     2.7850     8.1519   228.7789 </r>
       <r>     2.8905    22.4192   231.1435 </r>
       <r>     2.9960    24.6396   233.7423 </r>
       <r>     3.1014    23.4764   236.2184 </r>
       <r>     3.2069    20.4188   238.3720 </r>
       <r>     3.3124    17.4507   240.2126 </r>
       <r>     3.4179    21.7935   242.5112 </r>
       <r>     3.5233    13.5382   243.9391 </r>
       <r>     3.6288    16.6604   245.6963 </r>
       <r>     3.7343    30.4202   248.9048 </r>
       <r>     3.8397    18.6177   250.8684 </r>
       <r>     3.9452    10.9000   252.0181 </r>
       <r>     4.0507    32.5671   255.4530 </r>
       <r>     4.1562    18.5240   257.4068 </r>
       <r>     4.2616    15.0379   258.9929 </r>
       <r>     4.3671    17.5045   260.8391 </r>
       <r>     4.4726    20.4820   262.9994 </r>
       <r>     4.5781     9.4835   263.9996 </r>
       <r>     4.6835     0.0033   264.0000 </r>
       <r>     4.7890     0.0000   264.0000 </r>
       <r>     4.8945     0.0000   264.0000 </r>
       <r>     4.9999     0.0000   264.0000 </r>
       <r>     5.1054     0.0000   264.0000 </r>
       <r>     5.2109     0.0000   264.0000 </r>
       <r>     5.3164     0.0000   264.0000 </r>
       <r>     5.4218     0.0000   264.0000 </r>
       <r>     5.5273     0.0000   264.0000 </r>
       <r>     5.6328     0.0000   264.0000 </r>
       <r>     5.7383     0.0000   264.0000 </r>
       <r>     5.8437     0.0000   264.0000 </r>
       <r>     5.9492     0.0000   264.0000 </r>
      </set>
     </set>
    </array>
   </total>
  </dos>
 </calculation>
 <structure name="finalpos" >
  <crystal>
   <varray name="basis" >
    <v>       4.91694834      -8.51640434       0.00000000 </v>
    <v>       4.91694834       8.51640434       0.00000000 </v>
    <v>       0.00000000       0.00000000      20.44520000 </v>
   </varray>
   <i name="volume">   1712.27405710 </i>
   <varray name="rec_basis" >
    <v>       0.10168909      -0.05871022       0.00000000 </v>
    <v>       0.10168909       0.05871022       0.00000000 </v>
    <v>       0.00000000       0.00000000       0.04891124 </v>
   </varray>
  </crystal>
  <varray name="positions" >
   <v>       0.23113547       0.48384641       0.17732646 </v>
   <v>       0.49447968       0.22462060       0.08840076 </v>
   <v>       0.26718929       0.26718891       0.00000028 </v>
   <v>       0.73094173       0.48413489       0.17730675 </v>
   <v>       0.99444756       0.22443545       0.08842104 </v>
   <v>       0.76719015       0.26718923       0.00000028 </v>
   <v>       0.73111347       0.98384838       0.17732367 </v>
   <v>       0.99444069       0.72458229       0.08839946 </v>
   <v>       0.76718946       0.76718908       0.00000028 </v>
   <v>       0.23115187       0.98401380       0.17734617 </v>
   <v>       0.49444078       0.72439963       0.08841476 </v>
   <v>       0.26718982       0.76718957       0.00000028 </v>
   <v>       0.17405977       0.09342980       0.21463483 </v>
   <v>       0.34519370       0.06126696       0.11369364 </v>
   <v>       0.43346230       0.29983328       0.03245187 </v>
   <v>       0.12903271       0.19594535       0.05637022 </v>
   <v>       0.31688557       0.41396420       0.22562173 </v>
   <v>       0.06505217       0.33586647       0.15280073 </v>
   <v>       0.67397910       0.09315561       0.21468536 </v>
   <v>       0.84512421       0.06104591       0.11366120 </v>
   <v>       0.93334230       0.29968081       0.03252186 </v>
   <v>       0.62904197       0.19609476       0.05637115 </v>
   <v>       0.81668349       0.41432056       0.22565960 </v>
   <v>       0.56493021       0.33607896       0.15276875 </v>
   <v>       0.67375543       0.59343403       0.21464147 </v>
   <v>       0.84494876       0.56135377       0.11365629 </v>
   <v>       0.93351595       0.79992129       0.03246339 </v>
   <v>       0.62891606       0.69584866       0.05630524 </v>
   <v>       0.81690801       0.91407577       0.22566712 </v>
   <v>       0.56511914       0.83584149       0.15277658 </v>
   <v>       0.17412153       0.59327942       0.21464452 </v>
   <v>       0.34522756       0.56098233       0.11367742 </v>
   <v>       0.43334131       0.79975663       0.03255873 </v>
   <v>       0.12879746       0.69578436       0.05630430 </v>
   <v>       0.31705078       0.91432175       0.22567691 </v>
   <v>       0.06510076       0.83596356       0.15278803 </v>
   <v>       0.29275157       0.91917086       0.97242385 </v>
   <v>       0.79275161       0.91916998       0.97242385 </v>
   <v>       0.79275190       0.41917053       0.97242385 </v>
   <v>       0.29275144       0.41916981       0.97242385 </v>
   <v>       0.21010715       0.64766270       0.94630035 </v>
   <v>       0.71010689       0.14766295       0.94630035 </v>
   <v>       0.71010773       0.64766330       0.94630035 </v>
   <v>       0.21010756       0.14766313       0.94630035 </v>
   <v>       0.43272052       0.97381494       0.22609812 </v>
   <v>       0.93256639       0.97328111       0.22605844 </v>
   <v>       0.93231753       0.47354416       0.22609419 </v>
   <v>       0.43254946       0.47311835       0.22593313 </v>
   <v>       0.23907283       0.70829852       0.22150121 </v>
   <v>       0.73886590       0.20818414       0.22150279 </v>
   <v>       0.73866137       0.70847229       0.22156669 </v>
   <v>       0.23890211       0.20855863       0.22138096 </v>
  </varray>
  <varray name="selective"  type="logical" >
   <v type="logical" >  T  T  T </v>
   <v type="logical" >  T  T  T </v>
   <v type="logical" >  F  F  F </v>
   <v type="logical" >  T  T  T </v>
   <v type="logical" >  T  T  T </v>
   <v type="logical" >  F  F  F </v>
   <v type="logical" >  T  T  T </v>
   <v type="logical" >  T  T  T </v>
   <v type="logical" >  F  F  F </v>
   <v type="logical" >  T  T  T </v>
   <v type="logical" >  T  T  T </v>
   <v type="logical" >  F  F  F </v>
   <v type="logical" >  T  T  T </v>
   <v type="logical" >  T  T  T </v>
   <v type="logical" >  T  T  T </v>
   <v type="logical" >  T  T  T </v>
   <v type="logical" >  T  T  T </v>
   <v type="logical" >  T  T  T </v>
   <v type="logical" >  T  T  T </v>
   <v type="logical" >  T  T  T </v>
   <v type="logical" >  T  T  T </v>
   <v type="logical" >  T  T  T </v>
   <v type="logical" >  T  T  T </v>
   <v type="logical" >  T  T  T </v>
   <v type="logical" >  T  T  T </v>
   <v type="logical" >  T  T  T </v>
   <v type="logical" >  T  T  T </v>
   <v type="logical" >  T  T  T </v>
   <v type="logical" >  T  T  T </v>
   <v type="logical" >  T  T  T </v>
   <v type="logical" >  T  T  T </v>
   <v type="logical" >  T  T  T </v>
   <v type="logical" >  T  T  T </v>
   <v type="logical" >  T  T  T </v>
   <v type="logical" >  T  T  T </v>
   <v type="logical" >  T  T  T </v>
   <v type="logical" >  F  F  F </v>
   <v type="logical" >  F  F  F </v>
   <v type="logical" >  F  F  F </v>
   <v type="logical" >  F  F  F </v>
   <v type="logical" >  F  F  F </v>
   <v type="logical" >  F  F  F </v>
   <v type="logical" >  F  F  F </v>
   <v type="logical" >  F  F  F </v>
   <v type="logical" >  T  T  T </v>
   <v type="logical" >  T  T  T </v>
   <v type="logical" >  T  T  T </v>
   <v type="logical" >  T  T  T </v>
   <v type="logical" >  T  T  T </v>
   <v type="logical" >  T  T  T </v>
   <v type="logical" >  T  T  T </v>
   <v type="logical" >  T  T  T </v>
  </varray>
  <nose>
   <v>      -3.00000000       0.00000000       0.00010000       0.00010000 </v>
  </nose>
 </structure>
</modeling>
