<?xml version="1.0" encoding="ISO-8859-1"?>
<modeling>
 <generator>
  <i name="program" type="string">vasp </i>
  <i name="version" type="string">5.4.1  </i>
  <i name="subversion" type="string">24Jun15 (build Oct 29 2015 15:16:25) complex                          parallel </i>
  <i name="platform" type="string">IFC91_ompi </i>
  <i name="date" type="string">2021 03 19 </i>
  <i name="time" type="string">12:13:14 </i>
 </generator>
 <incar>
  <i type="string" name="PREC">normal</i>
  <i type="int" name="NELM">   300</i>
  <i type="int" name="IBRION">     2</i>
  <i name="EDIFF">      0.00000100</i>
  <i name="EDIFFG">     -0.00100000</i>
  <i type="int" name="NSW">   500</i>
  <i type="int" name="ISIF">     3</i>
  <i name="ENCUT">    520.00000000</i>
  <i type="int" name="ISMEAR">     1</i>
  <i name="SIGMA">      0.20000000</i>
  <i type="logical" name="LWAVE"> F  </i>
  <i type="logical" name="LCHARG"> F  </i>
  <v type="int" name="KPOINT_BSE">    -1     0     0     0</v>
  <i type="int" name="NELM">   300</i>
  <i type="string" name="GGA"> PE</i>
 </incar>
 <kpoints>
  <generation param="Gamma">
   <v type="int" name="divisions">      19       19       19 </v>
   <v name="usershift">      0.00000000       0.00000000       0.00000000 </v>
   <v name="genvec1">      0.05263158       0.00000000       0.00000000 </v>
   <v name="genvec2">      0.00000000       0.05263158       0.00000000 </v>
   <v name="genvec3">      0.00000000       0.00000000       0.05263158 </v>
   <v name="shift">      0.00000000       0.00000000       0.00000000 </v>
  </generation>
  <varray name="kpointlist" >
   <v>       0.00000000       0.00000000       0.00000000 </v>
   <v>       0.05263158      -0.00000000       0.00000000 </v>
   <v>       0.10526316      -0.00000000       0.00000000 </v>
   <v>       0.15789474      -0.00000000       0.00000000 </v>
   <v>       0.21052632      -0.00000000       0.00000000 </v>
   <v>       0.26315789      -0.00000000       0.00000000 </v>
   <v>       0.31578947      -0.00000000       0.00000000 </v>
   <v>       0.36842105      -0.00000000       0.00000000 </v>
   <v>       0.42105263      -0.00000000       0.00000000 </v>
   <v>       0.47368421      -0.00000000       0.00000000 </v>
   <v>       0.05263158       0.05263158       0.00000000 </v>
   <v>       0.10526316       0.05263158       0.00000000 </v>
   <v>       0.15789474       0.05263158       0.00000000 </v>
   <v>       0.21052632       0.05263158       0.00000000 </v>
   <v>       0.26315789       0.05263158       0.00000000 </v>
   <v>       0.31578947       0.05263158       0.00000000 </v>
   <v>       0.36842105       0.05263158       0.00000000 </v>
   <v>       0.42105263       0.05263158       0.00000000 </v>
   <v>       0.47368421       0.05263158       0.00000000 </v>
   <v>       0.10526316       0.10526316       0.00000000 </v>
   <v>       0.15789474       0.10526316       0.00000000 </v>
   <v>       0.21052632       0.10526316       0.00000000 </v>
   <v>       0.26315789       0.10526316       0.00000000 </v>
   <v>       0.31578947       0.10526316       0.00000000 </v>
   <v>       0.36842105       0.10526316       0.00000000 </v>
   <v>       0.42105263       0.10526316       0.00000000 </v>
   <v>       0.47368421       0.10526316       0.00000000 </v>
   <v>       0.15789474       0.15789474       0.00000000 </v>
   <v>       0.21052632       0.15789474       0.00000000 </v>
   <v>       0.26315789       0.15789474       0.00000000 </v>
   <v>       0.31578947       0.15789474       0.00000000 </v>
   <v>       0.36842105       0.15789474       0.00000000 </v>
   <v>       0.42105263       0.15789474       0.00000000 </v>
   <v>       0.47368421       0.15789474       0.00000000 </v>
   <v>       0.21052632       0.21052632       0.00000000 </v>
   <v>       0.26315789       0.21052632       0.00000000 </v>
   <v>       0.31578947       0.21052632       0.00000000 </v>
   <v>       0.36842105       0.21052632       0.00000000 </v>
   <v>       0.42105263       0.21052632       0.00000000 </v>
   <v>       0.47368421       0.21052632       0.00000000 </v>
   <v>       0.26315789       0.26315789       0.00000000 </v>
   <v>       0.31578947       0.26315789       0.00000000 </v>
   <v>       0.36842105       0.26315789       0.00000000 </v>
   <v>       0.42105263       0.26315789       0.00000000 </v>
   <v>       0.47368421       0.26315789       0.00000000 </v>
   <v>       0.31578947       0.31578947       0.00000000 </v>
   <v>       0.36842105       0.31578947       0.00000000 </v>
   <v>       0.42105263       0.31578947       0.00000000 </v>
   <v>       0.47368421       0.31578947       0.00000000 </v>
   <v>       0.36842105       0.36842105       0.00000000 </v>
   <v>       0.42105263       0.36842105       0.00000000 </v>
   <v>       0.47368421       0.36842105       0.00000000 </v>
   <v>       0.42105263       0.42105263       0.00000000 </v>
   <v>       0.47368421       0.42105263       0.00000000 </v>
   <v>       0.47368421       0.47368421       0.00000000 </v>
   <v>       0.05263158       0.05263158       0.05263158 </v>
   <v>       0.10526316       0.05263158       0.05263158 </v>
   <v>       0.15789474       0.05263158       0.05263158 </v>
   <v>       0.21052632       0.05263158       0.05263158 </v>
   <v>       0.26315789       0.05263158       0.05263158 </v>
   <v>       0.31578947       0.05263158       0.05263158 </v>
   <v>       0.36842105       0.05263158       0.05263158 </v>
   <v>       0.42105263       0.05263158       0.05263158 </v>
   <v>       0.47368421       0.05263158       0.05263158 </v>
   <v>       0.10526316       0.10526316       0.05263158 </v>
   <v>       0.15789474       0.10526316       0.05263158 </v>
   <v>       0.21052632       0.10526316       0.05263158 </v>
   <v>       0.26315789       0.10526316       0.05263158 </v>
   <v>       0.31578947       0.10526316       0.05263158 </v>
   <v>       0.36842105       0.10526316       0.05263158 </v>
   <v>       0.42105263       0.10526316       0.05263158 </v>
   <v>       0.47368421       0.10526316       0.05263158 </v>
   <v>       0.15789474       0.15789474       0.05263158 </v>
   <v>       0.21052632       0.15789474       0.05263158 </v>
   <v>       0.26315789       0.15789474       0.05263158 </v>
   <v>       0.31578947       0.15789474       0.05263158 </v>
   <v>       0.36842105       0.15789474       0.05263158 </v>
   <v>       0.42105263       0.15789474       0.05263158 </v>
   <v>       0.47368421       0.15789474       0.05263158 </v>
   <v>       0.21052632       0.21052632       0.05263158 </v>
   <v>       0.26315789       0.21052632       0.05263158 </v>
   <v>       0.31578947       0.21052632       0.05263158 </v>
   <v>       0.36842105       0.21052632       0.05263158 </v>
   <v>       0.42105263       0.21052632       0.05263158 </v>
   <v>       0.47368421       0.21052632       0.05263158 </v>
   <v>       0.26315789       0.26315789       0.05263158 </v>
   <v>       0.31578947       0.26315789       0.05263158 </v>
   <v>       0.36842105       0.26315789       0.05263158 </v>
   <v>       0.42105263       0.26315789       0.05263158 </v>
   <v>       0.47368421       0.26315789       0.05263158 </v>
   <v>       0.31578947       0.31578947       0.05263158 </v>
   <v>       0.36842105       0.31578947       0.05263158 </v>
   <v>       0.42105263       0.31578947       0.05263158 </v>
   <v>       0.47368421       0.31578947       0.05263158 </v>
   <v>       0.36842105       0.36842105       0.05263158 </v>
   <v>       0.42105263       0.36842105       0.05263158 </v>
   <v>       0.47368421       0.36842105       0.05263158 </v>
   <v>       0.42105263       0.42105263       0.05263158 </v>
   <v>       0.47368421       0.42105263       0.05263158 </v>
   <v>       0.47368421       0.47368421       0.05263158 </v>
   <v>       0.10526316       0.10526316       0.10526316 </v>
   <v>       0.15789474       0.10526316       0.10526316 </v>
   <v>       0.21052632       0.10526316       0.10526316 </v>
   <v>       0.26315789       0.10526316       0.10526316 </v>
   <v>       0.31578947       0.10526316       0.10526316 </v>
   <v>       0.36842105       0.10526316       0.10526316 </v>
   <v>       0.42105263       0.10526316       0.10526316 </v>
   <v>       0.47368421       0.10526316       0.10526316 </v>
   <v>       0.15789474       0.15789474       0.10526316 </v>
   <v>       0.21052632       0.15789474       0.10526316 </v>
   <v>       0.26315789       0.15789474       0.10526316 </v>
   <v>       0.31578947       0.15789474       0.10526316 </v>
   <v>       0.36842105       0.15789474       0.10526316 </v>
   <v>       0.42105263       0.15789474       0.10526316 </v>
   <v>       0.47368421       0.15789474       0.10526316 </v>
   <v>       0.21052632       0.21052632       0.10526316 </v>
   <v>       0.26315789       0.21052632       0.10526316 </v>
   <v>       0.31578947       0.21052632       0.10526316 </v>
   <v>       0.36842105       0.21052632       0.10526316 </v>
   <v>       0.42105263       0.21052632       0.10526316 </v>
   <v>       0.47368421       0.21052632       0.10526316 </v>
   <v>       0.26315789       0.26315789       0.10526316 </v>
   <v>       0.31578947       0.26315789       0.10526316 </v>
   <v>       0.36842105       0.26315789       0.10526316 </v>
   <v>       0.42105263       0.26315789       0.10526316 </v>
   <v>       0.47368421       0.26315789       0.10526316 </v>
   <v>       0.31578947       0.31578947       0.10526316 </v>
   <v>       0.36842105       0.31578947       0.10526316 </v>
   <v>       0.42105263       0.31578947       0.10526316 </v>
   <v>       0.47368421       0.31578947       0.10526316 </v>
   <v>       0.36842105       0.36842105       0.10526316 </v>
   <v>       0.42105263       0.36842105       0.10526316 </v>
   <v>       0.47368421       0.36842105       0.10526316 </v>
   <v>       0.42105263       0.42105263       0.10526316 </v>
   <v>       0.47368421       0.42105263       0.10526316 </v>
   <v>       0.47368421       0.47368421       0.10526316 </v>
   <v>       0.15789474       0.15789474       0.15789474 </v>
   <v>       0.21052632       0.15789474       0.15789474 </v>
   <v>       0.26315789       0.15789474       0.15789474 </v>
   <v>       0.31578947       0.15789474       0.15789474 </v>
   <v>       0.36842105       0.15789474       0.15789474 </v>
   <v>       0.42105263       0.15789474       0.15789474 </v>
   <v>       0.47368421       0.15789474       0.15789474 </v>
   <v>       0.21052632       0.21052632       0.15789474 </v>
   <v>       0.26315789       0.21052632       0.15789474 </v>
   <v>       0.31578947       0.21052632       0.15789474 </v>
   <v>       0.36842105       0.21052632       0.15789474 </v>
   <v>       0.42105263       0.21052632       0.15789474 </v>
   <v>       0.47368421       0.21052632       0.15789474 </v>
   <v>       0.26315789       0.26315789       0.15789474 </v>
   <v>       0.31578947       0.26315789       0.15789474 </v>
   <v>       0.36842105       0.26315789       0.15789474 </v>
   <v>       0.42105263       0.26315789       0.15789474 </v>
   <v>       0.47368421       0.26315789       0.15789474 </v>
   <v>       0.31578947       0.31578947       0.15789474 </v>
   <v>       0.36842105       0.31578947       0.15789474 </v>
   <v>       0.42105263       0.31578947       0.15789474 </v>
   <v>       0.47368421       0.31578947       0.15789474 </v>
   <v>       0.36842105       0.36842105       0.15789474 </v>
   <v>       0.42105263       0.36842105       0.15789474 </v>
   <v>       0.47368421       0.36842105       0.15789474 </v>
   <v>       0.42105263       0.42105263       0.15789474 </v>
   <v>       0.47368421       0.42105263       0.15789474 </v>
   <v>       0.47368421       0.47368421       0.15789474 </v>
   <v>       0.21052632       0.21052632       0.21052632 </v>
   <v>       0.26315789       0.21052632       0.21052632 </v>
   <v>       0.31578947       0.21052632       0.21052632 </v>
   <v>       0.36842105       0.21052632       0.21052632 </v>
   <v>       0.42105263       0.21052632       0.21052632 </v>
   <v>       0.47368421       0.21052632       0.21052632 </v>
   <v>       0.26315789       0.26315789       0.21052632 </v>
   <v>       0.31578947       0.26315789       0.21052632 </v>
   <v>       0.36842105       0.26315789       0.21052632 </v>
   <v>       0.42105263       0.26315789       0.21052632 </v>
   <v>       0.47368421       0.26315789       0.21052632 </v>
   <v>       0.31578947       0.31578947       0.21052632 </v>
   <v>       0.36842105       0.31578947       0.21052632 </v>
   <v>       0.42105263       0.31578947       0.21052632 </v>
   <v>       0.47368421       0.31578947       0.21052632 </v>
   <v>       0.36842105       0.36842105       0.21052632 </v>
   <v>       0.42105263       0.36842105       0.21052632 </v>
   <v>       0.47368421       0.36842105       0.21052632 </v>
   <v>       0.42105263       0.42105263       0.21052632 </v>
   <v>       0.47368421       0.42105263       0.21052632 </v>
   <v>       0.47368421       0.47368421       0.21052632 </v>
   <v>       0.26315789       0.26315789       0.26315789 </v>
   <v>       0.31578947       0.26315789       0.26315789 </v>
   <v>       0.36842105       0.26315789       0.26315789 </v>
   <v>       0.42105263       0.26315789       0.26315789 </v>
   <v>       0.47368421       0.26315789       0.26315789 </v>
   <v>       0.31578947       0.31578947       0.26315789 </v>
   <v>       0.36842105       0.31578947       0.26315789 </v>
   <v>       0.42105263       0.31578947       0.26315789 </v>
   <v>       0.47368421       0.31578947       0.26315789 </v>
   <v>       0.36842105       0.36842105       0.26315789 </v>
   <v>       0.42105263       0.36842105       0.26315789 </v>
   <v>       0.47368421       0.36842105       0.26315789 </v>
   <v>       0.42105263       0.42105263       0.26315789 </v>
   <v>       0.47368421       0.42105263       0.26315789 </v>
   <v>       0.47368421       0.47368421       0.26315789 </v>
   <v>       0.31578947       0.31578947       0.31578947 </v>
   <v>       0.36842105       0.31578947       0.31578947 </v>
   <v>       0.42105263       0.31578947       0.31578947 </v>
   <v>       0.47368421       0.31578947       0.31578947 </v>
   <v>       0.36842105       0.36842105       0.31578947 </v>
   <v>       0.42105263       0.36842105       0.31578947 </v>
   <v>       0.47368421       0.36842105       0.31578947 </v>
   <v>       0.42105263       0.42105263       0.31578947 </v>
   <v>       0.47368421       0.42105263       0.31578947 </v>
   <v>       0.47368421       0.47368421       0.31578947 </v>
   <v>       0.36842105       0.36842105       0.36842105 </v>
   <v>       0.42105263       0.36842105       0.36842105 </v>
   <v>       0.47368421       0.36842105       0.36842105 </v>
   <v>       0.42105263       0.42105263       0.36842105 </v>
   <v>       0.47368421       0.42105263       0.36842105 </v>
   <v>       0.47368421       0.47368421       0.36842105 </v>
   <v>       0.42105263       0.42105263       0.42105263 </v>
   <v>       0.47368421       0.42105263       0.42105263 </v>
   <v>       0.47368421       0.47368421       0.42105263 </v>
   <v>       0.47368421       0.47368421       0.47368421 </v>
  </varray>
  <varray name="weights" >
   <v>       0.00014579 </v>
   <v>       0.00087476 </v>
   <v>       0.00087476 </v>
   <v>       0.00087476 </v>
   <v>       0.00087476 </v>
   <v>       0.00087476 </v>
   <v>       0.00087476 </v>
   <v>       0.00087476 </v>
   <v>       0.00087476 </v>
   <v>       0.00087476 </v>
   <v>       0.00174953 </v>
   <v>       0.00349905 </v>
   <v>       0.00349905 </v>
   <v>       0.00349905 </v>
   <v>       0.00349905 </v>
   <v>       0.00349905 </v>
   <v>       0.00349905 </v>
   <v>       0.00349905 </v>
   <v>       0.00349905 </v>
   <v>       0.00174953 </v>
   <v>       0.00349905 </v>
   <v>       0.00349905 </v>
   <v>       0.00349905 </v>
   <v>       0.00349905 </v>
   <v>       0.00349905 </v>
   <v>       0.00349905 </v>
   <v>       0.00349905 </v>
   <v>       0.00174953 </v>
   <v>       0.00349905 </v>
   <v>       0.00349905 </v>
   <v>       0.00349905 </v>
   <v>       0.00349905 </v>
   <v>       0.00349905 </v>
   <v>       0.00349905 </v>
   <v>       0.00174953 </v>
   <v>       0.00349905 </v>
   <v>       0.00349905 </v>
   <v>       0.00349905 </v>
   <v>       0.00349905 </v>
   <v>       0.00349905 </v>
   <v>       0.00174953 </v>
   <v>       0.00349905 </v>
   <v>       0.00349905 </v>
   <v>       0.00349905 </v>
   <v>       0.00349905 </v>
   <v>       0.00174953 </v>
   <v>       0.00349905 </v>
   <v>       0.00349905 </v>
   <v>       0.00349905 </v>
   <v>       0.00174953 </v>
   <v>       0.00349905 </v>
   <v>       0.00349905 </v>
   <v>       0.00174953 </v>
   <v>       0.00349905 </v>
   <v>       0.00174953 </v>
   <v>       0.00116635 </v>
   <v>       0.00349905 </v>
   <v>       0.00349905 </v>
   <v>       0.00349905 </v>
   <v>       0.00349905 </v>
   <v>       0.00349905 </v>
   <v>       0.00349905 </v>
   <v>       0.00349905 </v>
   <v>       0.00349905 </v>
   <v>       0.00349905 </v>
   <v>       0.00699810 </v>
   <v>       0.00699810 </v>
   <v>       0.00699810 </v>
   <v>       0.00699810 </v>
   <v>       0.00699810 </v>
   <v>       0.00699810 </v>
   <v>       0.00699810 </v>
   <v>       0.00349905 </v>
   <v>       0.00699810 </v>
   <v>       0.00699810 </v>
   <v>       0.00699810 </v>
   <v>       0.00699810 </v>
   <v>       0.00699810 </v>
   <v>       0.00699810 </v>
   <v>       0.00349905 </v>
   <v>       0.00699810 </v>
   <v>       0.00699810 </v>
   <v>       0.00699810 </v>
   <v>       0.00699810 </v>
   <v>       0.00699810 </v>
   <v>       0.00349905 </v>
   <v>       0.00699810 </v>
   <v>       0.00699810 </v>
   <v>       0.00699810 </v>
   <v>       0.00699810 </v>
   <v>       0.00349905 </v>
   <v>       0.00699810 </v>
   <v>       0.00699810 </v>
   <v>       0.00699810 </v>
   <v>       0.00349905 </v>
   <v>       0.00699810 </v>
   <v>       0.00699810 </v>
   <v>       0.00349905 </v>
   <v>       0.00699810 </v>
   <v>       0.00349905 </v>
   <v>       0.00116635 </v>
   <v>       0.00349905 </v>
   <v>       0.00349905 </v>
   <v>       0.00349905 </v>
   <v>       0.00349905 </v>
   <v>       0.00349905 </v>
   <v>       0.00349905 </v>
   <v>       0.00349905 </v>
   <v>       0.00349905 </v>
   <v>       0.00699810 </v>
   <v>       0.00699810 </v>
   <v>       0.00699810 </v>
   <v>       0.00699810 </v>
   <v>       0.00699810 </v>
   <v>       0.00699810 </v>
   <v>       0.00349905 </v>
   <v>       0.00699810 </v>
   <v>       0.00699810 </v>
   <v>       0.00699810 </v>
   <v>       0.00699810 </v>
   <v>       0.00699810 </v>
   <v>       0.00349905 </v>
   <v>       0.00699810 </v>
   <v>       0.00699810 </v>
   <v>       0.00699810 </v>
   <v>       0.00699810 </v>
   <v>       0.00349905 </v>
   <v>       0.00699810 </v>
   <v>       0.00699810 </v>
   <v>       0.00699810 </v>
   <v>       0.00349905 </v>
   <v>       0.00699810 </v>
   <v>       0.00699810 </v>
   <v>       0.00349905 </v>
   <v>       0.00699810 </v>
   <v>       0.00349905 </v>
   <v>       0.00116635 </v>
   <v>       0.00349905 </v>
   <v>       0.00349905 </v>
   <v>       0.00349905 </v>
   <v>       0.00349905 </v>
   <v>       0.00349905 </v>
   <v>       0.00349905 </v>
   <v>       0.00349905 </v>
   <v>       0.00699810 </v>
   <v>       0.00699810 </v>
   <v>       0.00699810 </v>
   <v>       0.00699810 </v>
   <v>       0.00699810 </v>
   <v>       0.00349905 </v>
   <v>       0.00699810 </v>
   <v>       0.00699810 </v>
   <v>       0.00699810 </v>
   <v>       0.00699810 </v>
   <v>       0.00349905 </v>
   <v>       0.00699810 </v>
   <v>       0.00699810 </v>
   <v>       0.00699810 </v>
   <v>       0.00349905 </v>
   <v>       0.00699810 </v>
   <v>       0.00699810 </v>
   <v>       0.00349905 </v>
   <v>       0.00699810 </v>
   <v>       0.00349905 </v>
   <v>       0.00116635 </v>
   <v>       0.00349905 </v>
   <v>       0.00349905 </v>
   <v>       0.00349905 </v>
   <v>       0.00349905 </v>
   <v>       0.00349905 </v>
   <v>       0.00349905 </v>
   <v>       0.00699810 </v>
   <v>       0.00699810 </v>
   <v>       0.00699810 </v>
   <v>       0.00699810 </v>
   <v>       0.00349905 </v>
   <v>       0.00699810 </v>
   <v>       0.00699810 </v>
   <v>       0.00699810 </v>
   <v>       0.00349905 </v>
   <v>       0.00699810 </v>
   <v>       0.00699810 </v>
   <v>       0.00349905 </v>
   <v>       0.00699810 </v>
   <v>       0.00349905 </v>
   <v>       0.00116635 </v>
   <v>       0.00349905 </v>
   <v>       0.00349905 </v>
   <v>       0.00349905 </v>
   <v>       0.00349905 </v>
   <v>       0.00349905 </v>
   <v>       0.00699810 </v>
   <v>       0.00699810 </v>
   <v>       0.00699810 </v>
   <v>       0.00349905 </v>
   <v>       0.00699810 </v>
   <v>       0.00699810 </v>
   <v>       0.00349905 </v>
   <v>       0.00699810 </v>
   <v>       0.00349905 </v>
   <v>       0.00116635 </v>
   <v>       0.00349905 </v>
   <v>       0.00349905 </v>
   <v>       0.00349905 </v>
   <v>       0.00349905 </v>
   <v>       0.00699810 </v>
   <v>       0.00699810 </v>
   <v>       0.00349905 </v>
   <v>       0.00699810 </v>
   <v>       0.00349905 </v>
   <v>       0.00116635 </v>
   <v>       0.00349905 </v>
   <v>       0.00349905 </v>
   <v>       0.00349905 </v>
   <v>       0.00699810 </v>
   <v>       0.00349905 </v>
   <v>       0.00116635 </v>
   <v>       0.00349905 </v>
   <v>       0.00349905 </v>
   <v>       0.00116635 </v>
  </varray>
 </kpoints>
 <parameters>
  <separator name="general" >
   <i type="string" name="SYSTEM">unknown system</i>
   <i type="logical" name="LCOMPAT"> F  </i>
  </separator>
  <separator name="electronic" >
   <i type="string" name="PREC">normal</i>
   <i name="ENMAX">    520.00000000</i>
   <i name="ENAUG">    644.87300000</i>
   <i name="EDIFF">      0.00000100</i>
   <i type="int" name="IALGO">    38</i>
   <i type="int" name="IWAVPR">    11</i>
   <i type="int" name="NBANDS">    80</i>
   <i name="NELECT">     64.00000000</i>
   <i type="int" name="TURBO">     0</i>
   <i type="int" name="IRESTART">     0</i>
   <i type="int" name="NREBOOT">     0</i>
   <i type="int" name="NMIN">     0</i>
   <i name="EREF">      0.00000000</i>
   <separator name="electronic smearing" >
    <i type="int" name="ISMEAR">     1</i>
    <i name="SIGMA">      0.20000000</i>
    <i name="KSPACING">      0.50000000</i>
    <i type="logical" name="KGAMMA"> T  </i>
   </separator>
   <separator name="electronic projectors" >
    <i type="logical" name="LREAL"> F  </i>
    <v name="ROPT">      0.00000000      0.00000000</v>
    <i type="int" name="LMAXPAW">  -100</i>
    <i type="int" name="LMAXMIX">     2</i>
    <i type="logical" name="NLSPLINE"> F  </i>
   </separator>
   <separator name="electronic startup" >
    <i type="int" name="ISTART">     0</i>
    <i type="int" name="ICHARG">     2</i>
    <i type="int" name="INIWAV">     1</i>
   </separator>
   <separator name="electronic spin" >
    <i type="int" name="ISPIN">     1</i>
    <i type="logical" name="LNONCOLLINEAR"> F  </i>
    <v name="MAGMOM">      1.00000000      1.00000000      1.00000000      1.00000000      1.00000000      1.00000000      1.00000000      1.00000000</v>
    <i name="NUPDOWN">     -1.00000000</i>
    <i type="logical" name="LSORBIT"> F  </i>
    <v name="SAXIS">      0.00000000      0.00000000      1.00000000</v>
    <i type="logical" name="LSPIRAL"> F  </i>
    <v name="QSPIRAL">      0.00000000      0.00000000      0.00000000</v>
    <i type="logical" name="LZEROZ"> F  </i>
   </separator>
   <separator name="electronic exchange-correlation" >
    <i type="logical" name="LASPH"> F  </i>
    <i type="logical" name="LMETAGGA"> F  </i>
   </separator>
   <separator name="electronic convergence" >
    <i type="int" name="NELM">   300</i>
    <i type="int" name="NELMDL">    -5</i>
    <i type="int" name="NELMIN">     2</i>
    <i name="ENINI">    520.00000000</i>
    <separator name="electronic convergence detail" >
     <i type="logical" name="LDIAG"> T  </i>
     <i type="logical" name="LSUBROT"> F  </i>
     <i name="WEIMIN">      0.00100000</i>
     <i name="EBREAK">      0.00000000</i>
     <i name="DEPER">      0.30000000</i>
     <i type="int" name="NRMM">     4</i>
     <i name="TIME">      0.40000000</i>
    </separator>
   </separator>
   <separator name="electronic mixer" >
    <i name="AMIX">      0.40000000</i>
    <i name="BMIX">      1.00000000</i>
    <i name="AMIN">      0.10000000</i>
    <i name="AMIX_MAG">      1.60000000</i>
    <i name="BMIX_MAG">      1.00000000</i>
    <separator name="electronic mixer details" >
     <i type="int" name="IMIX">     4</i>
     <i type="logical" name="MIXFIRST"> F  </i>
     <i type="int" name="MAXMIX">   -45</i>
     <i name="WC">    100.00000000</i>
     <i type="int" name="INIMIX">     1</i>
     <i type="int" name="MIXPRE">     1</i>
     <i type="int" name="MREMOVE">     5</i>
    </separator>
   </separator>
   <separator name="electronic dipolcorrection" >
    <i type="logical" name="LDIPOL"> F  </i>
    <i type="logical" name="LMONO"> F  </i>
    <i type="int" name="IDIPOL">     0</i>
    <i name="EPSILON">      1.00000000</i>
    <v name="DIPOL">   -100.00000000   -100.00000000   -100.00000000</v>
    <i name="EFIELD">      0.00000000</i>
   </separator>
  </separator>
  <separator name="grids" >
   <i type="int" name="NGX">    24</i>
   <i type="int" name="NGY">    24</i>
   <i type="int" name="NGZ">    24</i>
   <i type="int" name="NGXF">    48</i>
   <i type="int" name="NGYF">    48</i>
   <i type="int" name="NGZF">    48</i>
   <i type="logical" name="ADDGRID"> F  </i>
  </separator>
  <separator name="ionic" >
   <i type="int" name="NSW">   500</i>
   <i type="int" name="IBRION">     2</i>
   <i type="int" name="ISIF">     3</i>
   <i name="PSTRESS">      0.00000000</i>
   <i name="EDIFFG">     -0.00100000</i>
   <i type="int" name="NFREE">     1</i>
   <i name="POTIM">      0.50000000</i>
   <i name="SMASS">     -3.00000000</i>
   <i name="SCALEE">      1.00000000</i>
  </separator>
  <separator name="ionic md" >
   <i name="TEBEG">      0.00010000</i>
   <i name="TEEND">      0.00010000</i>
   <i type="int" name="NBLOCK">     1</i>
   <i type="int" name="KBLOCK">   500</i>
   <i type="int" name="NPACO">   256</i>
   <i name="APACO">     16.00000000</i>
  </separator>
  <separator name="symmetry" >
   <i type="int" name="ISYM">     2</i>
   <i name="SYMPREC">      0.00001000</i>
  </separator>
  <separator name="dos" >
   <i type="logical" name="LORBIT"> F  </i>
   <v name="RWIGS">     -1.00000000     -1.00000000</v>
   <i type="int" name="NEDOS">   301</i>
   <i name="EMIN">     10.00000000</i>
   <i name="EMAX">    -10.00000000</i>
   <i name="EFERMI">      0.00000000</i>
  </separator>
  <separator name="writing" >
   <i type="int" name="NWRITE">     2</i>
   <i type="logical" name="LWAVE"> F  </i>
   <i type="logical" name="LCHARG"> F  </i>
   <i type="logical" name="LPARD"> F  </i>
   <i type="logical" name="LVTOT"> F  </i>
   <i type="logical" name="LVHAR"> F  </i>
   <i type="logical" name="LELF"> F  </i>
   <i type="logical" name="LOPTICS"> F  </i>
   <v name="STM">      0.00000000      0.00000000      0.00000000      0.00000000      0.00000000      0.00000000      0.00000000</v>
  </separator>
  <separator name="performance" >
   <i type="int" name="NPAR">    80</i>
   <i type="int" name="NSIM">     4</i>
   <i type="int" name="NBLK">    -1</i>
   <i type="logical" name="LPLANE"> T  </i>
   <i type="logical" name="LSCALAPACK"> T  </i>
   <i type="logical" name="LSCAAWARE"> T  </i>
   <i type="logical" name="LSCALU"> F  </i>
   <i type="logical" name="LASYNC"> F  </i>
   <i type="logical" name="LORBITALREAL"> F  </i>
  </separator>
  <separator name="miscellaneous" >
   <i type="int" name="IDIOT">     3</i>
   <i type="logical" name="LMUSIC"> F  </i>
   <v name="POMASS">     47.88000000     12.01100000</v>
   <v name="DARWINR">      0.00000000      0.00000000</v>
   <v name="DARWINV">      1.00000000      1.00000000</v>
   <i type="logical" name="LCORR"> T  </i>
  </separator>
  <i type="logical" name="GGA_COMPAT"> T  </i>
  <i type="logical" name="LBERRY"> F  </i>
  <i type="int" name="ICORELEVEL">     0</i>
  <i type="logical" name="LDAU"> F  </i>
  <i type="int" name="I_CONSTRAINED_M">     0</i>
  <separator name="electronic exchange-correlation" >
   <i type="string" name="GGA">PE</i>
   <i type="int" name="VOSKOWN">     0</i>
   <i type="logical" name="LHFCALC"> F  </i>
   <i type="string" name="PRECFOCK"></i>
   <i type="logical" name="LSYMGRAD"> F  </i>
   <i type="logical" name="LHFONE"> F  </i>
   <i type="logical" name="LRHFCALC"> F  </i>
   <i type="logical" name="LTHOMAS"> F  </i>
   <i type="logical" name="LMODELHF"> F  </i>
   <i name="ENCUT4O">     -1.00000000</i>
   <i type="int" name="EXXOEP">     0</i>
   <i type="int" name="FOURORBIT">     0</i>
   <i name="AEXX">      0.00000000</i>
   <i name="HFALPHA">      0.00000000</i>
   <i name="MCALPHA">      0.00000000</i>
   <i name="ALDAX">      1.00000000</i>
   <i name="AGGAX">      1.00000000</i>
   <i name="ALDAC">      1.00000000</i>
   <i name="AGGAC">      1.00000000</i>
   <i type="int" name="NKREDX">     1</i>
   <i type="int" name="NKREDY">     1</i>
   <i type="int" name="NKREDZ">     1</i>
   <i type="logical" name="SHIFTRED"> F  </i>
   <i type="logical" name="ODDONLY"> F  </i>
   <i type="logical" name="EVENONLY"> F  </i>
   <i type="int" name="LMAXFOCK">     0</i>
   <i type="int" name="NMAXFOCKAE">     0</i>
   <i type="logical" name="LFOCKAEDFT"> F  </i>
   <i name="HFSCREEN">      0.00000000</i>
   <i name="HFSCREENC">      0.00000000</i>
   <i type="int" name="NBANDSGWLOW">     0</i>
  </separator>
  <separator name="vdW DFT" >
   <i type="logical" name="LUSE_VDW"> F  </i>
   <i name="Zab_VDW">     -0.84910000</i>
   <i name="PARAM1">      0.12340000</i>
   <i name="PARAM2">      1.00000000</i>
   <i name="PARAM3">      0.00000000</i>
  </separator>
  <separator name="model GW" >
   <i type="int" name="MODEL_GW">     0</i>
   <i name="MODEL_EPS0">      6.11257093</i>
   <i name="MODEL_ALPHA">      1.00000000</i>
  </separator>
  <separator name="linear response parameters" >
   <i type="logical" name="LEPSILON"> F  </i>
   <i type="logical" name="LRPA"> F  </i>
   <i type="logical" name="LNABLA"> F  </i>
   <i type="logical" name="LVEL"> F  </i>
   <i type="int" name="KINTER">     0</i>
   <i name="CSHIFT">      0.10000000</i>
   <i name="OMEGAMAX">     -1.00000000</i>
   <i name="DEG_THRESHOLD">      0.00200000</i>
  </separator>
  <separator name="orbital magnetization" >
   <i type="logical" name="NUCIND"> F  </i>
   <v name="MAGPOS">      0.00000000      0.00000000      0.00000000</v>
   <i type="logical" name="LNICSALL"> T  </i>
   <i type="logical" name="ORBITALMAG"> F  </i>
   <i type="logical" name="LMAGBLOCH"> F  </i>
   <i type="logical" name="LCHIMAG"> F  </i>
   <i type="logical" name="LGAUGE"> T  </i>
   <i type="int" name="MAGATOM">     0</i>
   <v name="MAGDIPOL">      0.00000000      0.00000000      0.00000000</v>
   <v name="AVECCONST">      0.00000000      0.00000000      0.00000000</v>
  </separator>
  <separator name="response functions" >
   <i type="logical" name="LADDER"> F  </i>
   <i type="logical" name="LFXC"> F  </i>
   <i type="logical" name="LHARTREE"> T  </i>
   <i type="int" name="IBSE">     0</i>
   <v type="int" name="KPOINT">    -1     0     0     0</v>
   <i type="logical" name="LTCTE"> F  </i>
   <i type="logical" name="LTETE"> F  </i>
   <i type="logical" name="LTRIPLET"> F  </i>
   <i type="logical" name="LFXCEPS"> F  </i>
   <i type="logical" name="LFXHEG"> F  </i>
   <i type="int" name="NATURALO">     0</i>
   <i type="logical" name="L2ORDER"> F  </i>
   <i type="logical" name="LUSEW"> F  </i>
   <i name="ENCUTGW">     -2.00000000</i>
   <i name="ENCUTGWSOFT">     -2.00000000</i>
   <i name="ENCUTLF">     -1.00000000</i>
   <i type="int" name="LMAXMP2">    -1</i>
   <i name="SCISSOR">      0.00000000</i>
   <i type="int" name="NOMEGA">     0</i>
   <i type="int" name="NOMEGAR">     0</i>
   <i type="int" name="NBANDSGW">    -1</i>
   <i type="int" name="NBANDSO">    -1</i>
   <i type="int" name="NBANDSV">    -1</i>
   <i type="int" name="NELM">   300</i>
   <i type="int" name="NELMHF">     1</i>
   <i type="int" name="DIM">     3</i>
   <i type="int" name="ANTIRES">     0</i>
   <i name="OMEGAMAX">    -30.00000000</i>
   <i name="OMEGAMIN">    -30.00000000</i>
   <i name="OMEGATL">   -200.00000000</i>
   <i type="int" name="OMEGAGRID">     0</i>
   <i name="CSHIFT">     -0.10000000</i>
   <i type="logical" name="SELFENERGY"> F  </i>
   <i type="logical" name="LSPECTRAL"> F  </i>
   <i type="logical" name="LSPECTRALGW"> F  </i>
   <i type="logical" name="LSINGLES"> F  </i>
   <i type="logical" name="LFERMIGW"> F  </i>
   <i type="logical" name="ODDONLYGW"> F  </i>
   <i type="logical" name="EVENONLYGW"> F  </i>
   <i type="int" name="NKREDLFX">     1</i>
   <i type="int" name="NKREDLFY">     1</i>
   <i type="int" name="NKREDLFZ">     1</i>
   <i type="int" name="MAXMEM">  1800</i>
   <i type="int" name="TELESCOPE">     0</i>
   <i type="int" name="TAUPAR">     1</i>
   <i type="int" name="OMEGAPAR">    -1</i>
   <i name="LAMBDA">      1.00000000</i>
  </separator>
  <separator name="External order field" >
   <i name="OFIELD_KAPPA">      0.00000000</i>
   <v name="OFIELD_K">      0.00000000      0.00000000      0.00000000</v>
   <i name="OFIELD_Q6_NEAR">      0.00000000</i>
   <i name="OFIELD_Q6_FAR">      0.00000000</i>
   <i name="OFIELD_A">      0.00000000</i>
  </separator>
 </parameters>
 <atominfo>
  <atoms>       8 </atoms>
  <types>       2 </types>
  <array name="atoms" >
   <dimension dim="1">ion</dimension>
   <field type="string">element</field>
   <field type="int">atomtype</field>
   <set>
    <rc><c>Ti</c><c>   1</c></rc>
    <rc><c>Ti</c><c>   1</c></rc>
    <rc><c>Ti</c><c>   1</c></rc>
    <rc><c>Ti</c><c>   1</c></rc>
    <rc><c>C </c><c>   2</c></rc>
    <rc><c>C </c><c>   2</c></rc>
    <rc><c>C </c><c>   2</c></rc>
    <rc><c>C </c><c>   2</c></rc>
   </set>
  </array>
  <array name="atomtypes" >
   <dimension dim="1">type</dimension>
   <field type="int">atomspertype</field>
   <field type="string">element</field>
   <field>mass</field>
   <field>valence</field>
   <field type="string">pseudopotential</field>
   <set>
    <rc><c>   4</c><c>Ti</c><c>     47.88000000</c><c>     12.00000000</c><c> PAW_PBE Ti_sv 07Sep2000                </c></rc>
    <rc><c>   4</c><c>C </c><c>     12.01100000</c><c>      4.00000000</c><c> PAW_PBE C 08Apr2002                    </c></rc>
   </set>
  </array>
 </atominfo>
 <structure name="initialpos" >
  <crystal>
   <varray name="basis" >
    <v>       4.33565000       0.00000000       0.00000000 </v>
    <v>      -0.00000000       4.33565000       0.00000000 </v>
    <v>       0.00000000       0.00000000       4.33565000 </v>
   </varray>
   <i name="volume">     81.50094571 </i>
   <varray name="rec_basis" >
    <v>       0.23064592       0.00000000       0.00000000 </v>
    <v>       0.00000000       0.23064592       0.00000000 </v>
    <v>      -0.00000000      -0.00000000       0.23064592 </v>
   </varray>
  </crystal>
  <varray name="positions" >
   <v>       0.00000000       0.00000000       0.00000000 </v>
   <v>       0.00000000       0.50000000       0.50000000 </v>
   <v>       0.50000000       0.00000000       0.50000000 </v>
   <v>       0.50000000       0.50000000       0.00000000 </v>
   <v>       0.50000000       0.00000000       0.00000000 </v>
   <v>       0.50000000       0.50000000       0.50000000 </v>
   <v>       0.00000000       0.00000000       0.50000000 </v>
   <v>       0.00000000       0.50000000       0.00000000 </v>
  </varray>
 </structure>
 <calculation>
  <scstep>
   <time name="dav">   11.87   11.90</time>
   <time name="total">   11.89   11.92</time>
   <energy>
    <i name="alphaZ">    467.92641931 </i>
    <i name="ewald">  -5567.69617025 </i>
    <i name="hartreedc">  -1489.52748392 </i>
    <i name="XCdc">    305.18768522 </i>
    <i name="pawpsdc">   4618.07912230 </i>
    <i name="pawaedc">  -4544.15227340 </i>
    <i name="eentropy">      0.00060314 </i>
    <i name="bandstr">   -644.12682738 </i>
    <i name="atom">   6938.59795900 </i>
    <i name="e_fr_energy">     84.28903401 </i>
    <i name="e_wo_entrp">     84.28843088 </i>
    <i name="e_0_energy">     84.28883297 </i>
   </energy>
  </scstep>
  <scstep>
   <time name="dav">   21.40   21.45</time>
   <time name="total">   21.40   21.46</time>
   <energy>
    <i name="e_fr_energy">    -95.96712097 </i>
    <i name="e_wo_entrp">    -95.96756988 </i>
    <i name="e_0_energy">    -95.96727061 </i>
   </energy>
  </scstep>
  <scstep>
   <time name="dav">   12.67   12.70</time>
   <time name="total">   12.67   12.71</time>
   <energy>
    <i name="e_fr_energy">    -97.47122780 </i>
    <i name="e_wo_entrp">    -97.47193125 </i>
    <i name="e_0_energy">    -97.47146228 </i>
   </energy>
  </scstep>
  <scstep>
   <time name="dav">   37.85   37.94</time>
   <time name="total">   37.85   37.95</time>
   <energy>
    <i name="e_fr_energy">    -97.51520015 </i>
    <i name="e_wo_entrp">    -97.51590363 </i>
    <i name="e_0_energy">    -97.51543464 </i>
   </energy>
  </scstep>
  <scstep>
   <time name="dav">   13.13   13.16</time>
   <time name="total">   13.22   13.26</time>
   <energy>
    <i name="e_fr_energy">    -97.51525406 </i>
    <i name="e_wo_entrp">    -97.51595754 </i>
    <i name="e_0_energy">    -97.51548855 </i>
   </energy>
  </scstep>
  <scstep>
   <time name="dav">   28.68   28.75</time>
   <time name="total">   28.74   28.88</time>
   <energy>
    <i name="e_fr_energy">    -78.39109793 </i>
    <i name="e_wo_entrp">    -78.39145103 </i>
    <i name="e_0_energy">    -78.39121563 </i>
   </energy>
  </scstep>
  <scstep>
   <time name="dav">   18.52   18.56</time>
   <time name="total">   18.61   18.66</time>
   <energy>
    <i name="e_fr_energy">    -75.33440605 </i>
    <i name="e_wo_entrp">    -75.33600312 </i>
    <i name="e_0_energy">    -75.33493841 </i>
   </energy>
  </scstep>
  <scstep>
   <time name="dav">   26.98   27.04</time>
   <time name="total">   27.06   27.13</time>
   <energy>
    <i name="e_fr_energy">    -75.18347254 </i>
    <i name="e_wo_entrp">    -75.18488181 </i>
    <i name="e_0_energy">    -75.18394229 </i>
   </energy>
  </scstep>
  <scstep>
   <time name="dav">   26.26   26.32</time>
   <time name="total">   26.34   26.41</time>
   <energy>
    <i name="e_fr_energy">    -75.25520733 </i>
    <i name="e_wo_entrp">    -75.25653037 </i>
    <i name="e_0_energy">    -75.25564834 </i>
   </energy>
  </scstep>
  <scstep>
   <time name="dav">   22.72   22.78</time>
   <time name="total">   22.81   22.87</time>
   <energy>
    <i name="e_fr_energy">    -75.18859583 </i>
    <i name="e_wo_entrp">    -75.19000158 </i>
    <i name="e_0_energy">    -75.18906442 </i>
   </energy>
  </scstep>
  <scstep>
   <time name="dav">   27.89   27.95</time>
   <time name="total">   27.98   28.05</time>
   <energy>
    <i name="e_fr_energy">    -75.18489794 </i>
    <i name="e_wo_entrp">    -75.18632845 </i>
    <i name="e_0_energy">    -75.18537478 </i>
   </energy>
  </scstep>
  <scstep>
   <time name="dav">   13.22   13.25</time>
   <time name="total">   13.31   13.35</time>
   <energy>
    <i name="e_fr_energy">    -75.18484397 </i>
    <i name="e_wo_entrp">    -75.18627382 </i>
    <i name="e_0_energy">    -75.18532059 </i>
   </energy>
  </scstep>
  <scstep>
   <time name="dav">   21.66   21.72</time>
   <time name="total">   21.75   21.81</time>
   <energy>
    <i name="e_fr_energy">    -75.18483820 </i>
    <i name="e_wo_entrp">    -75.18626795 </i>
    <i name="e_0_energy">    -75.18531478 </i>
   </energy>
  </scstep>
  <scstep>
   <time name="dav">   20.39   20.44</time>
   <time name="total">   20.40   20.45</time>
   <energy>
    <i name="alphaZ">    467.92641931 </i>
    <i name="ewald">  -5567.69617025 </i>
    <i name="hartreedc">  -1371.59103133 </i>
    <i name="XCdc">    301.56569877 </i>
    <i name="pawpsdc">   4689.16447533 </i>
    <i name="pawaedc">  -4607.33561587 </i>
    <i name="eentropy">      0.00142997 </i>
    <i name="bandstr">   -925.81800406 </i>
    <i name="atom">   6938.59795900 </i>
    <i name="e_fr_energy">    -75.18483914 </i>
    <i name="e_wo_entrp">    -75.18626910 </i>
    <i name="e_0_energy">    -75.18531579 </i>
   </energy>
  </scstep>
  <structure>
   <crystal>
    <varray name="basis" >
     <v>       4.33565000       0.00000000       0.00000000 </v>
     <v>      -0.00000000       4.33565000       0.00000000 </v>
     <v>       0.00000000       0.00000000       4.33565000 </v>
    </varray>
    <i name="volume">     81.50094571 </i>
    <varray name="rec_basis" >
     <v>       0.23064592       0.00000000       0.00000000 </v>
     <v>       0.00000000       0.23064592       0.00000000 </v>
     <v>      -0.00000000      -0.00000000       0.23064592 </v>
    </varray>
   </crystal>
   <varray name="positions" >
    <v>       0.00000000       0.00000000       0.00000000 </v>
    <v>       0.00000000       0.50000000       0.50000000 </v>
    <v>       0.50000000       0.00000000       0.50000000 </v>
    <v>       0.50000000       0.50000000       0.00000000 </v>
    <v>       0.50000000       0.00000000       0.00000000 </v>
    <v>       0.50000000       0.50000000       0.50000000 </v>
    <v>       0.00000000       0.00000000       0.50000000 </v>
    <v>       0.00000000       0.50000000       0.00000000 </v>
   </varray>
  </structure>
  <varray name="forces" >
   <v>       0.00000000       0.00000000      -0.00000000 </v>
   <v>      -0.00000000      -0.00000000      -0.00000000 </v>
   <v>       0.00000000       0.00000000       0.00000000 </v>
   <v>       0.00000000      -0.00000000       0.00000000 </v>
   <v>      -0.00000000       0.00000000       0.00000000 </v>
   <v>       0.00000000      -0.00000000      -0.00000000 </v>
   <v>       0.00000000      -0.00000000       0.00000000 </v>
   <v>       0.00000000      -0.00000000       0.00000000 </v>
  </varray>
  <varray name="stress" >
   <v>     -49.20491051      -0.00000000       0.00000000 </v>
   <v>       0.00000000     -49.20491051      -0.00000000 </v>
   <v>       0.00000000       0.00000000     -49.20491051 </v>
  </varray>
  <energy>
   <i name="e_fr_energy">    -77.58489948 </i>
   <i name="e_wo_entrp">    -77.58537613 </i>
   <i name="e_0_energy">      0.00142997 </i>
  </energy>
  <time name="totalsc">  309.03  309.94</time>
 </calculation>
 <calculation>
  <scstep>
   <time name="dav">   12.51   12.54</time>
   <time name="total">   12.58   12.61</time>
   <energy>
    <i name="alphaZ">    489.77103343 </i>
    <i name="ewald">  -5653.02237368 </i>
    <i name="hartreedc">  -1392.57188946 </i>
    <i name="XCdc">    305.97559886 </i>
    <i name="pawpsdc">   4689.08063819 </i>
    <i name="pawaedc">  -4607.25741077 </i>
    <i name="eentropy">      0.00159016 </i>
    <i name="bandstr">   -847.06080445 </i>
    <i name="atom">   6938.59795900 </i>
    <i name="e_fr_energy">    -76.48565871 </i>
    <i name="e_wo_entrp">    -76.48724887 </i>
    <i name="e_0_energy">    -76.48618876 </i>
   </energy>
  </scstep>
  <scstep>
   <time name="dav">   23.83   23.89</time>
   <time name="total">   23.91   23.97</time>
   <energy>
    <i name="e_fr_energy">    -75.25916873 </i>
    <i name="e_wo_entrp">    -75.26032279 </i>
    <i name="e_0_energy">    -75.25955341 </i>
   </energy>
  </scstep>
  <scstep>
   <time name="dav">   22.71   22.76</time>
   <time name="total">   22.80   22.86</time>
   <energy>
    <i name="e_fr_energy">    -75.01982354 </i>
    <i name="e_wo_entrp">    -75.02121612 </i>
    <i name="e_0_energy">    -75.02028773 </i>
   </energy>
  </scstep>
  <scstep>
   <time name="dav">   13.38   13.42</time>
   <time name="total">   13.46   13.50</time>
   <energy>
    <i name="e_fr_energy">    -75.00892708 </i>
    <i name="e_wo_entrp">    -75.01023790 </i>
    <i name="e_0_energy">    -75.00936402 </i>
   </energy>
  </scstep>
  <scstep>
   <time name="dav">   33.27   33.35</time>
   <time name="total">   33.35   33.44</time>
   <energy>
    <i name="e_fr_energy">    -75.02964812 </i>
    <i name="e_wo_entrp">    -75.03097339 </i>
    <i name="e_0_energy">    -75.03008988 </i>
   </energy>
  </scstep>
  <scstep>
   <time name="dav">   26.64   26.71</time>
   <time name="total">   26.72   26.79</time>
   <energy>
    <i name="e_fr_energy">    -75.03901708 </i>
    <i name="e_wo_entrp">    -75.04033677 </i>
    <i name="e_0_energy">    -75.03945698 </i>
   </energy>
  </scstep>
  <scstep>
   <time name="dav">   12.58   12.61</time>
   <time name="total">   12.66   12.69</time>
   <energy>
    <i name="e_fr_energy">    -75.03882345 </i>
    <i name="e_wo_entrp">    -75.04015519 </i>
    <i name="e_0_energy">    -75.03926736 </i>
   </energy>
  </scstep>
  <scstep>
   <time name="dav">   20.40   20.45</time>
   <time name="total">   20.48   20.53</time>
   <energy>
    <i name="e_fr_energy">    -75.03882756 </i>
    <i name="e_wo_entrp">    -75.04015903 </i>
    <i name="e_0_energy">    -75.03927138 </i>
   </energy>
  </scstep>
  <scstep>
   <time name="dav">   23.80   23.86</time>
   <time name="total">   23.88   23.94</time>
   <energy>
    <i name="e_fr_energy">    -75.03883014 </i>
    <i name="e_wo_entrp">    -75.04016196 </i>
    <i name="e_0_energy">    -75.03927408 </i>
   </energy>
  </scstep>
  <scstep>
   <time name="dav">   15.05   15.09</time>
   <time name="total">   15.06   15.11</time>
   <energy>
    <i name="alphaZ">    489.77103343 </i>
    <i name="ewald">  -5653.02237368 </i>
    <i name="hartreedc">  -1341.26251813 </i>
    <i name="XCdc">    303.11962909 </i>
    <i name="pawpsdc">   4753.28519145 </i>
    <i name="pawaedc">  -4668.79897730 </i>
    <i name="eentropy">      0.00133193 </i>
    <i name="bandstr">   -896.73010610 </i>
    <i name="atom">   6938.59795900 </i>
    <i name="e_fr_energy">    -75.03883030 </i>
    <i name="e_wo_entrp">    -75.04016223 </i>
    <i name="e_0_energy">    -75.03927428 </i>
   </energy>
  </scstep>
  <structure>
   <crystal>
    <varray name="basis" >
     <v>       4.27020809      -0.00000000       0.00000000 </v>
     <v>      -0.00000000       4.27020809       0.00000000 </v>
     <v>       0.00000000       0.00000000       4.27020809 </v>
    </varray>
    <i name="volume">     77.86586607 </i>
    <varray name="rec_basis" >
     <v>       0.23418062       0.00000000      -0.00000000 </v>
     <v>       0.00000000       0.23418062      -0.00000000 </v>
     <v>      -0.00000000      -0.00000000       0.23418062 </v>
    </varray>
   </crystal>
   <varray name="positions" >
    <v>       0.00000000       0.00000000      -0.00000000 </v>
    <v>      -0.00000000       0.50000000       0.50000000 </v>
    <v>       0.50000000       0.00000000       0.50000000 </v>
    <v>       0.50000000       0.50000000       0.00000000 </v>
    <v>       0.50000000       0.00000000       0.00000000 </v>
    <v>       0.50000000       0.50000000       0.50000000 </v>
    <v>       0.00000000      -0.00000000       0.50000000 </v>
    <v>       0.00000000       0.50000000       0.00000000 </v>
   </varray>
  </structure>
  <varray name="forces" >
   <v>      -0.00000000       0.00000000       0.00000000 </v>
   <v>       0.00000000       0.00000000      -0.00000000 </v>
   <v>      -0.00000000      -0.00000000      -0.00000000 </v>
   <v>       0.00000000      -0.00000000       0.00000000 </v>
   <v>      -0.00000000      -0.00000000       0.00000000 </v>
   <v>      -0.00000000      -0.00000000       0.00000000 </v>
   <v>      -0.00000000      -0.00000000       0.00000000 </v>
   <v>      -0.00000000      -0.00000000      -0.00000000 </v>
  </varray>
  <varray name="stress" >
   <v>      72.55935098      -0.00000000       0.00000000 </v>
   <v>      -0.00000000      72.55935098       0.00000000 </v>
   <v>       0.00000000       0.00000000      72.55935098 </v>
  </varray>
  <energy>
   <i name="e_fr_energy">    -77.56275791 </i>
   <i name="e_wo_entrp">    -77.56320189 </i>
   <i name="e_0_energy">      0.00133193 </i>
  </energy>
  <time name="totalsc">  210.00  210.58</time>
 </calculation>
 <calculation>
  <scstep>
   <time name="dav">   13.10   13.14</time>
   <time name="total">   13.18   13.22</time>
   <energy>
    <i name="alphaZ">    476.95361434 </i>
    <i name="ewald">  -5603.27219891 </i>
    <i name="hartreedc">  -1329.45883177 </i>
    <i name="XCdc">    300.57198145 </i>
    <i name="pawpsdc">   4753.28227432 </i>
    <i name="pawaedc">  -4668.79560142 </i>
    <i name="eentropy">      0.00128300 </i>
    <i name="bandstr">   -943.55607324 </i>
    <i name="atom">   6938.59795900 </i>
    <i name="e_fr_energy">    -75.67559324 </i>
    <i name="e_wo_entrp">    -75.67687624 </i>
    <i name="e_0_energy">    -75.67602090 </i>
   </energy>
  </scstep>
  <scstep>
   <time name="dav">   22.05   22.10</time>
   <time name="total">   22.14   22.20</time>
   <energy>
    <i name="e_fr_energy">    -75.27774615 </i>
    <i name="e_wo_entrp">    -75.27937157 </i>
    <i name="e_0_energy">    -75.27828796 </i>
   </energy>
  </scstep>
  <scstep>
   <time name="dav">   18.28   18.33</time>
   <time name="total">   18.37   18.42</time>
   <energy>
    <i name="e_fr_energy">    -75.14599103 </i>
    <i name="e_wo_entrp">    -75.14735537 </i>
    <i name="e_0_energy">    -75.14644581 </i>
   </energy>
  </scstep>
  <scstep>
   <time name="dav">   14.46   14.50</time>
   <time name="total">   14.55   14.59</time>
   <energy>
    <i name="e_fr_energy">    -75.14545237 </i>
    <i name="e_wo_entrp">    -75.14684925 </i>
    <i name="e_0_energy">    -75.14591799 </i>
   </energy>
  </scstep>
  <scstep>
   <time name="dav">   30.43   30.50</time>
   <time name="total">   30.51   30.59</time>
   <energy>
    <i name="e_fr_energy">    -75.15488183 </i>
    <i name="e_wo_entrp">    -75.15628212 </i>
    <i name="e_0_energy">    -75.15534859 </i>
   </energy>
  </scstep>
  <scstep>
   <time name="dav">   31.12   31.20</time>
   <time name="total">   31.21   31.29</time>
   <energy>
    <i name="e_fr_energy">    -75.15735773 </i>
    <i name="e_wo_entrp">    -75.15874599 </i>
    <i name="e_0_energy">    -75.15782048 </i>
   </energy>
  </scstep>
  <scstep>
   <time name="dav">   15.28   15.31</time>
   <time name="total">   15.36   15.40</time>
   <energy>
    <i name="e_fr_energy">    -75.15733316 </i>
    <i name="e_wo_entrp">    -75.15872337 </i>
    <i name="e_0_energy">    -75.15779656 </i>
   </energy>
  </scstep>
  <scstep>
   <time name="dav">   25.53   25.59</time>
   <time name="total">   25.54   25.60</time>
   <energy>
    <i name="alphaZ">    476.95361434 </i>
    <i name="ewald">  -5603.27219891 </i>
    <i name="hartreedc">  -1358.87675933 </i>
    <i name="XCdc">    302.20998182 </i>
    <i name="pawpsdc">   4715.45644088 </i>
    <i name="pawaedc">  -4632.45784213 </i>
    <i name="eentropy">      0.00139012 </i>
    <i name="bandstr">   -913.76991924 </i>
    <i name="atom">   6938.59795900 </i>
    <i name="e_fr_energy">    -75.15733345 </i>
    <i name="e_wo_entrp">    -75.15872357 </i>
    <i name="e_0_energy">    -75.15779683 </i>
   </energy>
  </scstep>
  <structure>
   <crystal>
    <varray name="basis" >
     <v>       4.30812230      -0.00000000       0.00000000 </v>
     <v>      -0.00000000       4.30812230       0.00000000 </v>
     <v>       0.00000000       0.00000000       4.30812230 </v>
    </varray>
    <i name="volume">     79.95839543 </i>
    <varray name="rec_basis" >
     <v>       0.23211969       0.00000000      -0.00000000 </v>
     <v>       0.00000000       0.23211969      -0.00000000 </v>
     <v>      -0.00000000      -0.00000000       0.23211969 </v>
    </varray>
   </crystal>
   <varray name="positions" >
    <v>       0.00000000       0.00000000      -0.00000000 </v>
    <v>      -0.00000000       0.50000000       0.50000000 </v>
    <v>       0.50000000       0.00000000       0.50000000 </v>
    <v>       0.50000000       0.50000000       0.00000000 </v>
    <v>       0.50000000       0.00000000       0.00000000 </v>
    <v>       0.50000000       0.50000000       0.50000000 </v>
    <v>       0.00000000      -0.00000000       0.50000000 </v>
    <v>       0.00000000       0.50000000       0.00000000 </v>
   </varray>
  </structure>
  <varray name="forces" >
   <v>       0.00000000       0.00000000      -0.00000000 </v>
   <v>       0.00000000      -0.00000000       0.00000000 </v>
   <v>       0.00000000      -0.00000000       0.00000000 </v>
   <v>      -0.00000000       0.00000000       0.00000000 </v>
   <v>      -0.00000000      -0.00000000       0.00000000 </v>
   <v>      -0.00000000      -0.00000000       0.00000000 </v>
   <v>      -0.00000000      -0.00000000       0.00000000 </v>
   <v>      -0.00000000      -0.00000000       0.00000000 </v>
  </varray>
  <varray name="stress" >
   <v>       0.12048676      -0.00000000       0.00000000 </v>
   <v>       0.00000000       0.12048676      -0.00000000 </v>
   <v>       0.00000000       0.00000000       0.12048676 </v>
  </varray>
  <energy>
   <i name="e_fr_energy">    -77.60883579 </i>
   <i name="e_wo_entrp">    -77.60929916 </i>
   <i name="e_0_energy">      0.00139012 </i>
  </energy>
  <time name="totalsc">  175.07  175.55</time>
  <eigenvalues>
   <array>
    <dimension dim="1">band</dimension>
    <dimension dim="2">kpoint</dimension>
    <dimension dim="3">spin</dimension>
    <field>eigene</field>
    <field>occ</field>
    <set>
     <set comment="spin 1">
      <set comment="kpoint 1">
       <r>  -49.0951    1.0000 </r>
       <r>  -48.9897    1.0000 </r>
       <r>  -48.9897    1.0000 </r>
       <r>  -48.9897    1.0000 </r>
       <r>  -25.6497    1.0000 </r>
       <r>  -25.6497    1.0000 </r>
       <r>  -25.6497    1.0000 </r>
       <r>  -25.3664    1.0000 </r>
       <r>  -25.3664    1.0000 </r>
       <r>  -25.3664    1.0000 </r>
       <r>  -25.3664    1.0000 </r>
       <r>  -25.3664    1.0000 </r>
       <r>  -25.3664    1.0000 </r>
       <r>  -25.1883    1.0000 </r>
       <r>  -25.1883    1.0000 </r>
       <r>  -25.1883    1.0000 </r>
       <r>   -5.1488    1.0000 </r>
       <r>   -2.8571    1.0000 </r>
       <r>   -2.8571    1.0000 </r>
       <r>   -2.8571    1.0000 </r>
       <r>    3.8919    1.0000 </r>
       <r>    3.8919    1.0000 </r>
       <r>    3.8919    1.0000 </r>
       <r>    5.6596    1.0000 </r>
       <r>    5.6596    1.0000 </r>
       <r>    5.6596    1.0000 </r>
       <r>    7.3238    0.5994 </r>
       <r>    7.3238    0.5994 </r>
       <r>    7.3238    0.5994 </r>
       <r>    7.3238    0.5994 </r>
       <r>    7.3238    0.5994 </r>
       <r>    7.3238    0.5994 </r>
       <r>    8.0228   -0.0000 </r>
       <r>    8.0228   -0.0000 </r>
       <r>    8.0228   -0.0000 </r>
       <r>    9.0596   -0.0000 </r>
       <r>    9.0596   -0.0000 </r>
       <r>    9.0596   -0.0000 </r>
       <r>    9.0792   -0.0000 </r>
       <r>    9.0792   -0.0000 </r>
       <r>   10.0988   -0.0000 </r>
       <r>   10.0988   -0.0000 </r>
       <r>   10.0988   -0.0000 </r>
       <r>   10.9170   -0.0000 </r>
       <r>   10.9170   -0.0000 </r>
       <r>   10.9170   -0.0000 </r>
       <r>   10.9170   -0.0000 </r>
       <r>   10.9170   -0.0000 </r>
       <r>   10.9170   -0.0000 </r>
       <r>   13.2787    0.0000 </r>
       <r>   13.2787    0.0000 </r>
       <r>   13.2787    0.0000 </r>
       <r>   18.0472    0.0000 </r>
       <r>   19.2816    0.0000 </r>
       <r>   19.2816    0.0000 </r>
       <r>   19.2816    0.0000 </r>
       <r>   21.6112    0.0000 </r>
       <r>   22.3316    0.0000 </r>
       <r>   22.3316    0.0000 </r>
       <r>   22.3316    0.0000 </r>
       <r>   22.7480    0.0000 </r>
       <r>   22.7480    0.0000 </r>
       <r>   22.7480    0.0000 </r>
       <r>   27.3666    0.0000 </r>
       <r>   27.3666    0.0000 </r>
       <r>   27.3666    0.0000 </r>
       <r>   28.8639    0.0000 </r>
       <r>   28.8639    0.0000 </r>
       <r>   28.8639    0.0000 </r>
       <r>   28.8639    0.0000 </r>
       <r>   28.8639    0.0000 </r>
       <r>   28.8639    0.0000 </r>
       <r>   34.2103    0.0000 </r>
       <r>   34.2103    0.0000 </r>
       <r>   34.4548    0.0000 </r>
       <r>   34.4548    0.0000 </r>
       <r>   34.4548    0.0000 </r>
       <r>   35.6128    0.0000 </r>
       <r>   35.6128    0.0000 </r>
       <r>   35.6128    0.0000 </r>
      </set>
      <set comment="kpoint 2">
       <r>  -49.0944    1.0000 </r>
       <r>  -48.9905    1.0000 </r>
       <r>  -48.9897    1.0000 </r>
       <r>  -48.9897    1.0000 </r>
       <r>  -25.6478    1.0000 </r>
       <r>  -25.6478    1.0000 </r>
       <r>  -25.6469    1.0000 </r>
       <r>  -25.3683    1.0000 </r>
       <r>  -25.3683    1.0000 </r>
       <r>  -25.3666    1.0000 </r>
       <r>  -25.3666    1.0000 </r>
       <r>  -25.3652    1.0000 </r>
       <r>  -25.3652    1.0000 </r>
       <r>  -25.1918    1.0000 </r>
       <r>  -25.1895    1.0000 </r>
       <r>  -25.1895    1.0000 </r>
       <r>   -5.1273    1.0000 </r>
       <r>   -2.8582    1.0000 </r>
       <r>   -2.8425    1.0000 </r>
       <r>   -2.8425    1.0000 </r>
       <r>    3.8622    1.0000 </r>
       <r>    3.8923    1.0000 </r>
       <r>    3.8923    1.0000 </r>
       <r>    5.5946    1.0000 </r>
       <r>    5.5946    1.0000 </r>
       <r>    5.6725    1.0000 </r>
       <r>    7.2018    0.9695 </r>
       <r>    7.2018    0.9695 </r>
       <r>    7.3105    0.6535 </r>
       <r>    7.3105    0.6535 </r>
       <r>    7.4110    0.2457 </r>
       <r>    7.4110    0.2457 </r>
       <r>    7.9555   -0.0001 </r>
       <r>    7.9555   -0.0001 </r>
       <r>    8.0020   -0.0000 </r>
       <r>    8.4041   -0.0000 </r>
       <r>    9.0856   -0.0000 </r>
       <r>    9.1453   -0.0000 </r>
       <r>    9.1453   -0.0000 </r>
       <r>    9.7245   -0.0000 </r>
       <r>   10.0912   -0.0000 </r>
       <r>   10.2069   -0.0000 </r>
       <r>   10.2069   -0.0000 </r>
       <r>   10.9168   -0.0000 </r>
       <r>   10.9168   -0.0000 </r>
       <r>   10.9172   -0.0000 </r>
       <r>   10.9172   -0.0000 </r>
       <r>   10.9346   -0.0000 </r>
       <r>   10.9346   -0.0000 </r>
       <r>   13.2736    0.0000 </r>
       <r>   13.2736    0.0000 </r>
       <r>   13.3168    0.0000 </r>
       <r>   18.0866    0.0000 </r>
       <r>   19.3081    0.0000 </r>
       <r>   19.3360    0.0000 </r>
       <r>   19.3360    0.0000 </r>
       <r>   21.6207    0.0000 </r>
       <r>   22.3017    0.0000 </r>
       <r>   22.3017    0.0000 </r>
       <r>   22.3286    0.0000 </r>
       <r>   22.7167    0.0000 </r>
       <r>   22.7167    0.0000 </r>
       <r>   22.7465    0.0000 </r>
       <r>   27.3178    0.0000 </r>
       <r>   27.3178    0.0000 </r>
       <r>   27.4225    0.0000 </r>
       <r>   28.7613    0.0000 </r>
       <r>   28.7613    0.0000 </r>
       <r>   28.8158    0.0000 </r>
       <r>   28.8158    0.0000 </r>
       <r>   28.8981    0.0000 </r>
       <r>   28.8981    0.0000 </r>
       <r>   33.5888    0.0000 </r>
       <r>   34.0549    0.0000 </r>
       <r>   34.0549    0.0000 </r>
       <r>   34.2101    0.0000 </r>
       <r>   34.4491    0.0000 </r>
       <r>   35.6936    0.0000 </r>
       <r>   35.6936    0.0000 </r>
       <r>   35.9900    0.0000 </r>
      </set>
      <set comment="kpoint 3">
       <r>  -49.0922    1.0000 </r>
       <r>  -48.9926    1.0000 </r>
       <r>  -48.9897    1.0000 </r>
       <r>  -48.9897    1.0000 </r>
       <r>  -25.6421    1.0000 </r>
       <r>  -25.6421    1.0000 </r>
       <r>  -25.6385    1.0000 </r>
       <r>  -25.3742    1.0000 </r>
       <r>  -25.3742    1.0000 </r>
       <r>  -25.3673    1.0000 </r>
       <r>  -25.3673    1.0000 </r>
       <r>  -25.3616    1.0000 </r>
       <r>  -25.3616    1.0000 </r>
       <r>  -25.2021    1.0000 </r>
       <r>  -25.1931    1.0000 </r>
       <r>  -25.1931    1.0000 </r>
       <r>   -5.0632    1.0000 </r>
       <r>   -2.8632    1.0000 </r>
       <r>   -2.7998    1.0000 </r>
       <r>   -2.7998    1.0000 </r>
       <r>    3.7806    1.0000 </r>
       <r>    3.8941    1.0000 </r>
       <r>    3.8941    1.0000 </r>
       <r>    5.4327    1.0000 </r>
       <r>    5.4327    1.0000 </r>
       <r>    5.7112    1.0000 </r>
       <r>    6.8892    1.0028 </r>
       <r>    6.8892    1.0028 </r>
       <r>    7.2728    0.7929 </r>
       <r>    7.2728    0.7929 </r>
       <r>    7.6387   -0.0296 </r>
       <r>    7.6387   -0.0296 </r>
       <r>    7.7408   -0.0089 </r>
       <r>    7.8006   -0.0031 </r>
       <r>    7.8006   -0.0031 </r>
       <r>    7.9410   -0.0001 </r>
       <r>    9.1047   -0.0000 </r>
       <r>    9.3544   -0.0000 </r>
       <r>    9.3544   -0.0000 </r>
       <r>   10.0688   -0.0000 </r>
       <r>   10.3572   -0.0000 </r>
       <r>   10.4787   -0.0000 </r>
       <r>   10.4787   -0.0000 </r>
       <r>   10.9146   -0.0000 </r>
       <r>   10.9146   -0.0000 </r>
       <r>   10.9174   -0.0000 </r>
       <r>   10.9174   -0.0000 </r>
       <r>   10.9841   -0.0000 </r>
       <r>   10.9841   -0.0000 </r>
       <r>   13.2576    0.0000 </r>
       <r>   13.2576    0.0000 </r>
       <r>   13.4210    0.0000 </r>
       <r>   18.2042    0.0000 </r>
       <r>   19.3916    0.0000 </r>
       <r>   19.4983    0.0000 </r>
       <r>   19.4983    0.0000 </r>
       <r>   21.6482    0.0000 </r>
       <r>   22.2165    0.0000 </r>
       <r>   22.2165    0.0000 </r>
       <r>   22.3197    0.0000 </r>
       <r>   22.6265    0.0000 </r>
       <r>   22.6265    0.0000 </r>
       <r>   22.7419    0.0000 </r>
       <r>   27.1801    0.0000 </r>
       <r>   27.1801    0.0000 </r>
       <r>   27.5900    0.0000 </r>
       <r>   28.4823    0.0000 </r>
       <r>   28.4823    0.0000 </r>
       <r>   28.6721    0.0000 </r>
       <r>   28.6721    0.0000 </r>
       <r>   28.9970    0.0000 </r>
       <r>   28.9970    0.0000 </r>
       <r>   32.5231    0.0000 </r>
       <r>   33.3858    0.0000 </r>
       <r>   33.3858    0.0000 </r>
       <r>   34.2095    0.0000 </r>
       <r>   34.4330    0.0000 </r>
       <r>   35.9285    0.0000 </r>
       <r>   35.9524    0.0000 </r>
       <r>   35.9524    0.0000 </r>
      </set>
      <set comment="kpoint 4">
       <r>  -49.0888    1.0000 </r>
       <r>  -48.9961    1.0000 </r>
       <r>  -48.9897    1.0000 </r>
       <r>  -48.9897    1.0000 </r>
       <r>  -25.6329    1.0000 </r>
       <r>  -25.6329    1.0000 </r>
       <r>  -25.6246    1.0000 </r>
       <r>  -25.3837    1.0000 </r>
       <r>  -25.3837    1.0000 </r>
       <r>  -25.3683    1.0000 </r>
       <r>  -25.3683    1.0000 </r>
       <r>  -25.3557    1.0000 </r>
       <r>  -25.3557    1.0000 </r>
       <r>  -25.2190    1.0000 </r>
       <r>  -25.1990    1.0000 </r>
       <r>  -25.1990    1.0000 </r>
       <r>   -4.9584    1.0000 </r>
       <r>   -2.8769    1.0000 </r>
       <r>   -2.7319    1.0000 </r>
       <r>   -2.7319    1.0000 </r>
       <r>    3.6662    1.0000 </r>
       <r>    3.8985    1.0000 </r>
       <r>    3.8985    1.0000 </r>
       <r>    5.2279    1.0000 </r>
       <r>    5.2279    1.0000 </r>
       <r>    5.7751    1.0000 </r>
       <r>    6.4798    1.0000 </r>
       <r>    6.4798    1.0000 </r>
       <r>    7.0905    1.0349 </r>
       <r>    7.2166    0.9430 </r>
       <r>    7.2166    0.9430 </r>
       <r>    7.6206   -0.0330 </r>
       <r>    7.6206   -0.0330 </r>
       <r>    7.8428   -0.0013 </r>
       <r>    7.9494   -0.0001 </r>
       <r>    7.9494   -0.0001 </r>
       <r>    9.1361   -0.0000 </r>
       <r>    9.6213   -0.0000 </r>
       <r>    9.6213   -0.0000 </r>
       <r>   10.0323   -0.0000 </r>
       <r>   10.8242   -0.0000 </r>
       <r>   10.8242   -0.0000 </r>
       <r>   10.9062   -0.0000 </r>
       <r>   10.9062   -0.0000 </r>
       <r>   10.9179   -0.0000 </r>
       <r>   10.9179   -0.0000 </r>
       <r>   10.9556   -0.0000 </r>
       <r>   11.0566   -0.0000 </r>
       <r>   11.0566   -0.0000 </r>
       <r>   13.2295    0.0000 </r>
       <r>   13.2295    0.0000 </r>
       <r>   13.5650    0.0000 </r>
       <r>   18.3977    0.0000 </r>
       <r>   19.5440    0.0000 </r>
       <r>   19.7659    0.0000 </r>
       <r>   19.7659    0.0000 </r>
       <r>   21.6907    0.0000 </r>
       <r>   22.0885    0.0000 </r>
       <r>   22.0885    0.0000 </r>
       <r>   22.3049    0.0000 </r>
       <r>   22.4846    0.0000 </r>
       <r>   22.4846    0.0000 </r>
       <r>   22.7299    0.0000 </r>
       <r>   26.9763    0.0000 </r>
       <r>   26.9763    0.0000 </r>
       <r>   27.8687    0.0000 </r>
       <r>   28.0873    0.0000 </r>
       <r>   28.0873    0.0000 </r>
       <r>   28.4319    0.0000 </r>
       <r>   28.4319    0.0000 </r>
       <r>   29.1488    0.0000 </r>
       <r>   29.1488    0.0000 </r>
       <r>   31.3708    0.0000 </r>
       <r>   32.7514    0.0000 </r>
       <r>   32.7514    0.0000 </r>
       <r>   34.2088    0.0000 </r>
       <r>   34.4086    0.0000 </r>
       <r>   35.8958    0.0000 </r>
       <r>   35.8958    0.0000 </r>
       <r>   36.2975    0.0000 </r>
      </set>
      <set comment="kpoint 5">
       <r>  -49.0840    1.0000 </r>
       <r>  -49.0009    1.0000 </r>
       <r>  -48.9897    1.0000 </r>
       <r>  -48.9897    1.0000 </r>
       <r>  -25.6202    1.0000 </r>
       <r>  -25.6202    1.0000 </r>
       <r>  -25.6055    1.0000 </r>
       <r>  -25.3966    1.0000 </r>
       <r>  -25.3966    1.0000 </r>
       <r>  -25.3695    1.0000 </r>
       <r>  -25.3695    1.0000 </r>
       <r>  -25.3477    1.0000 </r>
       <r>  -25.3477    1.0000 </r>
       <r>  -25.2417    1.0000 </r>
       <r>  -25.2071    1.0000 </r>
       <r>  -25.2071    1.0000 </r>
       <r>   -4.8162    1.0000 </r>
       <r>   -2.9067    1.0000 </r>
       <r>   -2.6443    1.0000 </r>
       <r>   -2.6443    1.0000 </r>
       <r>    3.5462    1.0000 </r>
       <r>    3.9075    1.0000 </r>
       <r>    3.9075    1.0000 </r>
       <r>    5.0153    1.0000 </r>
       <r>    5.0153    1.0000 </r>
       <r>    5.8634    1.0000 </r>
       <r>    6.0423    1.0000 </r>
       <r>    6.0423    1.0000 </r>
       <r>    6.4637    1.0000 </r>
       <r>    7.1498    1.0239 </r>
       <r>    7.1498    1.0239 </r>
       <r>    7.4463    0.1333 </r>
       <r>    7.4463    0.1333 </r>
       <r>    7.7124   -0.0135 </r>
       <r>    8.3033   -0.0000 </r>
       <r>    8.3033   -0.0000 </r>
       <r>    9.1792   -0.0000 </r>
       <r>    9.9100   -0.0000 </r>
       <r>    9.9100   -0.0000 </r>
       <r>    9.9830   -0.0000 </r>
       <r>   10.8853   -0.0000 </r>
       <r>   10.8853   -0.0000 </r>
       <r>   10.9184   -0.0000 </r>
       <r>   10.9184   -0.0000 </r>
       <r>   11.1396   -0.0000 </r>
       <r>   11.1396   -0.0000 </r>
       <r>   11.1818   -0.0000 </r>
       <r>   11.1818   -0.0000 </r>
       <r>   11.5094   -0.0000 </r>
       <r>   13.1874    0.0000 </r>
       <r>   13.1874    0.0000 </r>
       <r>   13.7132    0.0000 </r>
       <r>   18.6616    0.0000 </r>
       <r>   19.7776    0.0000 </r>
       <r>   20.1321    0.0000 </r>
       <r>   20.1321    0.0000 </r>
       <r>   21.7441    0.0000 </r>
       <r>   21.9350    0.0000 </r>
       <r>   21.9350    0.0000 </r>
       <r>   22.2843    0.0000 </r>
       <r>   22.3032    0.0000 </r>
       <r>   22.3032    0.0000 </r>
       <r>   22.7080    0.0000 </r>
       <r>   26.7361    0.0000 </r>
       <r>   26.7361    0.0000 </r>
       <r>   27.6416    0.0000 </r>
       <r>   27.6416    0.0000 </r>
       <r>   28.0960    0.0000 </r>
       <r>   28.0960    0.0000 </r>
       <r>   28.2575    0.0000 </r>
       <r>   29.3375    0.0000 </r>
       <r>   29.3375    0.0000 </r>
       <r>   30.1933    0.0000 </r>
       <r>   32.2027    0.0000 </r>
       <r>   32.2027    0.0000 </r>
       <r>   34.2083    0.0000 </r>
       <r>   34.3793    0.0000 </r>
       <r>   35.8276    0.0000 </r>
       <r>   35.8276    0.0000 </r>
       <r>   36.7756    0.0000 </r>
      </set>
      <set comment="kpoint 6">
       <r>  -49.0782    1.0000 </r>
       <r>  -49.0068    1.0000 </r>
       <r>  -48.9897    1.0000 </r>
       <r>  -48.9897    1.0000 </r>
       <r>  -25.6045    1.0000 </r>
       <r>  -25.6045    1.0000 </r>
       <r>  -25.5816    1.0000 </r>
       <r>  -25.4126    1.0000 </r>
       <r>  -25.4126    1.0000 </r>
       <r>  -25.3709    1.0000 </r>
       <r>  -25.3709    1.0000 </r>
       <r>  -25.3377    1.0000 </r>
       <r>  -25.3377    1.0000 </r>
       <r>  -25.2696    1.0000 </r>
       <r>  -25.2171    1.0000 </r>
       <r>  -25.2171    1.0000 </r>
       <r>   -4.6409    1.0000 </r>
       <r>   -2.9614    1.0000 </r>
       <r>   -2.5445    1.0000 </r>
       <r>   -2.5445    1.0000 </r>
       <r>    3.4498    1.0000 </r>
       <r>    3.9236    1.0000 </r>
       <r>    3.9236    1.0000 </r>
       <r>    4.8123    1.0000 </r>
       <r>    4.8123    1.0000 </r>
       <r>    5.6201    1.0000 </r>
       <r>    5.6201    1.0000 </r>
       <r>    5.8703    1.0000 </r>
       <r>    5.9747    1.0000 </r>
       <r>    7.0811    1.0339 </r>
       <r>    7.0811    1.0339 </r>
       <r>    7.2910    0.7288 </r>
       <r>    7.2910    0.7288 </r>
       <r>    7.5558   -0.0289 </r>
       <r>    8.6758   -0.0000 </r>
       <r>    8.6758   -0.0000 </r>
       <r>    9.2329   -0.0000 </r>
       <r>    9.9224   -0.0000 </r>
       <r>   10.2001   -0.0000 </r>
       <r>   10.2001   -0.0000 </r>
       <r>   10.8434   -0.0000 </r>
       <r>   10.8434   -0.0000 </r>
       <r>   10.9190   -0.0000 </r>
       <r>   10.9190   -0.0000 </r>
       <r>   11.2186   -0.0000 </r>
       <r>   11.2186   -0.0000 </r>
       <r>   11.5199   -0.0000 </r>
       <r>   11.5199   -0.0000 </r>
       <r>   12.0108   -0.0000 </r>
       <r>   13.1292    0.0000 </r>
       <r>   13.1292    0.0000 </r>
       <r>   13.8302    0.0000 </r>
       <r>   18.9865    0.0000 </r>
       <r>   20.0936    0.0000 </r>
       <r>   20.5833    0.0000 </r>
       <r>   20.5833    0.0000 </r>
       <r>   21.7750    0.0000 </r>
       <r>   21.7750    0.0000 </r>
       <r>   21.8040    0.0000 </r>
       <r>   22.0992    0.0000 </r>
       <r>   22.0992    0.0000 </r>
       <r>   22.2580    0.0000 </r>
       <r>   22.6822    0.0000 </r>
       <r>   26.4904    0.0000 </r>
       <r>   26.4904    0.0000 </r>
       <r>   27.1965    0.0000 </r>
       <r>   27.1965    0.0000 </r>
       <r>   27.6717    0.0000 </r>
       <r>   27.6717    0.0000 </r>
       <r>   28.7542    0.0000 </r>
       <r>   29.0168    0.0000 </r>
       <r>   29.5467    0.0000 </r>
       <r>   29.5467    0.0000 </r>
       <r>   31.7457    0.0000 </r>
       <r>   31.7457    0.0000 </r>
       <r>   34.2087    0.0000 </r>
       <r>   34.3481    0.0000 </r>
       <r>   35.7558    0.0000 </r>
       <r>   35.7558    0.0000 </r>
       <r>   37.3232    0.0000 </r>
      </set>
      <set comment="kpoint 7">
       <r>  -49.0713    1.0000 </r>
       <r>  -49.0137    1.0000 </r>
       <r>  -48.9897    1.0000 </r>
       <r>  -48.9897    1.0000 </r>
       <r>  -25.5861    1.0000 </r>
       <r>  -25.5861    1.0000 </r>
       <r>  -25.5535    1.0000 </r>
       <r>  -25.4312    1.0000 </r>
       <r>  -25.4312    1.0000 </r>
       <r>  -25.3722    1.0000 </r>
       <r>  -25.3722    1.0000 </r>
       <r>  -25.3261    1.0000 </r>
       <r>  -25.3261    1.0000 </r>
       <r>  -25.3016    1.0000 </r>
       <r>  -25.2287    1.0000 </r>
       <r>  -25.2287    1.0000 </r>
       <r>   -4.4385    1.0000 </r>
       <r>   -3.0489    1.0000 </r>
       <r>   -2.4424    1.0000 </r>
       <r>   -2.4424    1.0000 </r>
       <r>    3.4041    1.0000 </r>
       <r>    3.9495    1.0000 </r>
       <r>    3.9495    1.0000 </r>
       <r>    4.6275    1.0000 </r>
       <r>    4.6275    1.0000 </r>
       <r>    5.2437    1.0000 </r>
       <r>    5.2437    1.0000 </r>
       <r>    5.3200    1.0000 </r>
       <r>    6.1073    1.0000 </r>
       <r>    7.0182    1.0209 </r>
       <r>    7.0182    1.0209 </r>
       <r>    7.1610    1.0166 </r>
       <r>    7.1610    1.0166 </r>
       <r>    7.3798    0.3654 </r>
       <r>    9.0494   -0.0000 </r>
       <r>    9.0494   -0.0000 </r>
       <r>    9.2960   -0.0000 </r>
       <r>    9.8526   -0.0000 </r>
       <r>   10.4768   -0.0000 </r>
       <r>   10.4768   -0.0000 </r>
       <r>   10.7714   -0.0000 </r>
       <r>   10.7714   -0.0000 </r>
       <r>   10.9195   -0.0000 </r>
       <r>   10.9195   -0.0000 </r>
       <r>   11.2788   -0.0000 </r>
       <r>   11.2788   -0.0000 </r>
       <r>   11.8248   -0.0000 </r>
       <r>   11.8248   -0.0000 </r>
       <r>   12.4555   -0.0000 </r>
       <r>   13.0529    0.0000 </r>
       <r>   13.0529    0.0000 </r>
       <r>   13.8904    0.0000 </r>
       <r>   19.3573    0.0000 </r>
       <r>   20.4595    0.0000 </r>
       <r>   21.0961    0.0000 </r>
       <r>   21.0961    0.0000 </r>
       <r>   21.6276    0.0000 </r>
       <r>   21.6276    0.0000 </r>
       <r>   21.8668    0.0000 </r>
       <r>   21.8931    0.0000 </r>
       <r>   21.8931    0.0000 </r>
       <r>   22.2262    0.0000 </r>
       <r>   22.6840    0.0000 </r>
       <r>   26.2674    0.0000 </r>
       <r>   26.2674    0.0000 </r>
       <r>   26.7896    0.0000 </r>
       <r>   26.7896    0.0000 </r>
       <r>   27.1802    0.0000 </r>
       <r>   27.1802    0.0000 </r>
       <r>   27.8602    0.0000 </r>
       <r>   29.3553    0.0000 </r>
       <r>   29.7624    0.0000 </r>
       <r>   29.7624    0.0000 </r>
       <r>   31.3720    0.0000 </r>
       <r>   31.3720    0.0000 </r>
       <r>   34.2105    0.0000 </r>
       <r>   34.3176    0.0000 </r>
       <r>   35.6882    0.0000 </r>
       <r>   35.6882    0.0000 </r>
       <r>   36.0682    0.0000 </r>
      </set>
      <set comment="kpoint 8">
       <r>  -49.0637    1.0000 </r>
       <r>  -49.0214    1.0000 </r>
       <r>  -48.9897    1.0000 </r>
       <r>  -48.9897    1.0000 </r>
       <r>  -25.5657    1.0000 </r>
       <r>  -25.5657    1.0000 </r>
       <r>  -25.5217    1.0000 </r>
       <r>  -25.4519    1.0000 </r>
       <r>  -25.4519    1.0000 </r>
       <r>  -25.3734    1.0000 </r>
       <r>  -25.3734    1.0000 </r>
       <r>  -25.3368    1.0000 </r>
       <r>  -25.3132    1.0000 </r>
       <r>  -25.3132    1.0000 </r>
       <r>  -25.2416    1.0000 </r>
       <r>  -25.2416    1.0000 </r>
       <r>   -4.2167    1.0000 </r>
       <r>   -3.1743    1.0000 </r>
       <r>   -2.3497    1.0000 </r>
       <r>   -2.3497    1.0000 </r>
       <r>    3.4297    1.0000 </r>
       <r>    3.9883    1.0000 </r>
       <r>    3.9883    1.0000 </r>
       <r>    4.4646    1.0000 </r>
       <r>    4.4646    1.0000 </r>
       <r>    4.8222    1.0000 </r>
       <r>    4.9371    1.0000 </r>
       <r>    4.9371    1.0000 </r>
       <r>    6.2591    1.0000 </r>
       <r>    6.9680    1.0110 </r>
       <r>    6.9680    1.0110 </r>
       <r>    7.0591    1.0301 </r>
       <r>    7.0591    1.0301 </r>
       <r>    7.1909    0.9856 </r>
       <r>    9.3671   -0.0000 </r>
       <r>    9.4100   -0.0000 </r>
       <r>    9.4100   -0.0000 </r>
       <r>    9.7758   -0.0000 </r>
       <r>   10.6607   -0.0000 </r>
       <r>   10.6607   -0.0000 </r>
       <r>   10.7277   -0.0000 </r>
       <r>   10.7277   -0.0000 </r>
       <r>   10.9200   -0.0000 </r>
       <r>   10.9200   -0.0000 </r>
       <r>   11.3070   -0.0000 </r>
       <r>   11.3070   -0.0000 </r>
       <r>   12.0922   -0.0000 </r>
       <r>   12.0922   -0.0000 </r>
       <r>   12.8418    0.0000 </r>
       <r>   12.9567    0.0000 </r>
       <r>   12.9567    0.0000 </r>
       <r>   13.8809    0.0000 </r>
       <r>   19.7530    0.0000 </r>
       <r>   20.7761    0.0000 </r>
       <r>   21.5097    0.0000 </r>
       <r>   21.5097    0.0000 </r>
       <r>   21.6303    0.0000 </r>
       <r>   21.6303    0.0000 </r>
       <r>   21.7055    0.0000 </r>
       <r>   21.7055    0.0000 </r>
       <r>   21.9293    0.0000 </r>
       <r>   22.1889    0.0000 </r>
       <r>   22.8056    0.0000 </r>
       <r>   26.0916    0.0000 </r>
       <r>   26.0916    0.0000 </r>
       <r>   26.4482    0.0000 </r>
       <r>   26.4482    0.0000 </r>
       <r>   26.6603    0.0000 </r>
       <r>   26.6603    0.0000 </r>
       <r>   26.7407    0.0000 </r>
       <r>   29.9756    0.0000 </r>
       <r>   29.9756    0.0000 </r>
       <r>   30.0566    0.0000 </r>
       <r>   31.0669    0.0000 </r>
       <r>   31.0669    0.0000 </r>
       <r>   34.2145    0.0000 </r>
       <r>   34.2898    0.0000 </r>
       <r>   34.8776    0.0000 </r>
       <r>   35.6315    0.0000 </r>
       <r>   35.6315    0.0000 </r>
      </set>
      <set comment="kpoint 9">
       <r>  -49.0555    1.0000 </r>
       <r>  -49.0296    1.0000 </r>
       <r>  -48.9896    1.0000 </r>
       <r>  -48.9896    1.0000 </r>
       <r>  -25.5437    1.0000 </r>
       <r>  -25.5437    1.0000 </r>
       <r>  -25.4870    1.0000 </r>
       <r>  -25.4741    1.0000 </r>
       <r>  -25.4741    1.0000 </r>
       <r>  -25.3742    1.0000 </r>
       <r>  -25.3742    1.0000 </r>
       <r>  -25.3740    1.0000 </r>
       <r>  -25.2993    1.0000 </r>
       <r>  -25.2993    1.0000 </r>
       <r>  -25.2556    1.0000 </r>
       <r>  -25.2556    1.0000 </r>
       <r>   -3.9846    1.0000 </r>
       <r>   -3.3376    1.0000 </r>
       <r>   -2.2788    1.0000 </r>
       <r>   -2.2788    1.0000 </r>
       <r>    3.5393    1.0000 </r>
       <r>    4.0428    1.0000 </r>
       <r>    4.0428    1.0000 </r>
       <r>    4.3252    1.0000 </r>
       <r>    4.3252    1.0000 </r>
       <r>    4.3864    1.0000 </r>
       <r>    4.7199    1.0000 </r>
       <r>    4.7199    1.0000 </r>
       <r>    6.4275    1.0000 </r>
       <r>    6.9360    1.0066 </r>
       <r>    6.9360    1.0066 </r>
       <r>    6.9863    1.0142 </r>
       <r>    6.9863    1.0142 </r>
       <r>    6.9957    1.0161 </r>
       <r>    9.4445   -0.0000 </r>
       <r>    9.6942   -0.0000 </r>
       <r>    9.7451   -0.0000 </r>
       <r>    9.7451   -0.0000 </r>
       <r>   10.5043   -0.0000 </r>
       <r>   10.5043   -0.0000 </r>
       <r>   10.9204   -0.0000 </r>
       <r>   10.9204   -0.0000 </r>
       <r>   10.9417   -0.0000 </r>
       <r>   10.9417   -0.0000 </r>
       <r>   11.2923   -0.0000 </r>
       <r>   11.2923   -0.0000 </r>
       <r>   12.3228   -0.0000 </r>
       <r>   12.3228   -0.0000 </r>
       <r>   12.8393    0.0000 </r>
       <r>   12.8393    0.0000 </r>
       <r>   13.1701    0.0000 </r>
       <r>   13.7999    0.0000 </r>
       <r>   20.1471    0.0000 </r>
       <r>   20.8952    0.0000 </r>
       <r>   21.4357    0.0000 </r>
       <r>   21.4357    0.0000 </r>
       <r>   21.5552    0.0000 </r>
       <r>   21.5552    0.0000 </r>
       <r>   21.9896    0.0000 </r>
       <r>   22.1148    0.0000 </r>
       <r>   22.1148    0.0000 </r>
       <r>   22.1464    0.0000 </r>
       <r>   23.1824    0.0000 </r>
       <r>   25.6778    0.0000 </r>
       <r>   25.9833    0.0000 </r>
       <r>   25.9833    0.0000 </r>
[...]
       <r>   22.7041    0.0000 </r>
       <r>   24.2380    0.0000 </r>
       <r>   24.2851    0.0000 </r>
       <r>   24.2851    0.0000 </r>
       <r>   24.3088    0.0000 </r>
       <r>   31.5559    0.0000 </r>
       <r>   31.7419    0.0000 </r>
       <r>   31.7419    0.0000 </r>
       <r>   31.8343    0.0000 </r>
       <r>   33.3067    0.0000 </r>
       <r>   33.3767    0.0000 </r>
       <r>   33.3767    0.0000 </r>
       <r>   33.6547    0.0000 </r>
       <r>   34.0505    0.0000 </r>
       <r>   34.1330    0.0000 </r>
       <r>   34.4612    0.0000 </r>
       <r>   34.4612    0.0000 </r>
      </set>
      <set comment="kpoint 220">
       <r>  -49.0164    1.0000 </r>
       <r>  -49.0157    1.0000 </r>
       <r>  -49.0157    1.0000 </r>
       <r>  -49.0157    1.0000 </r>
       <r>  -25.7136    1.0000 </r>
       <r>  -25.7136    1.0000 </r>
       <r>  -25.7136    1.0000 </r>
       <r>  -25.7118    1.0000 </r>
       <r>  -25.2410    1.0000 </r>
       <r>  -25.2410    1.0000 </r>
       <r>  -25.2410    1.0000 </r>
       <r>  -25.2397    1.0000 </r>
       <r>  -25.2397    1.0000 </r>
       <r>  -25.2397    1.0000 </r>
       <r>  -25.2385    1.0000 </r>
       <r>  -25.2385    1.0000 </r>
       <r>   -1.6292    1.0000 </r>
       <r>   -1.5877    1.0000 </r>
       <r>   -1.5877    1.0000 </r>
       <r>   -1.5877    1.0000 </r>
       <r>    1.4414    1.0000 </r>
       <r>    1.4414    1.0000 </r>
       <r>    1.4414    1.0000 </r>
       <r>    1.4816    1.0000 </r>
       <r>    4.3773    1.0000 </r>
       <r>    4.3773    1.0000 </r>
       <r>    4.3773    1.0000 </r>
       <r>    4.3918    1.0000 </r>
       <r>    4.3918    1.0000 </r>
       <r>    4.3918    1.0000 </r>
       <r>    4.3934    1.0000 </r>
       <r>    4.3934    1.0000 </r>
       <r>   10.2840   -0.0000 </r>
       <r>   10.2840   -0.0000 </r>
       <r>   10.2840   -0.0000 </r>
       <r>   10.2850   -0.0000 </r>
       <r>   10.2850   -0.0000 </r>
       <r>   10.3067   -0.0000 </r>
       <r>   10.3067   -0.0000 </r>
       <r>   10.3067   -0.0000 </r>
       <r>   11.4830   -0.0000 </r>
       <r>   11.5034   -0.0000 </r>
       <r>   11.5034   -0.0000 </r>
       <r>   11.5034   -0.0000 </r>
       <r>   15.4842    0.0000 </r>
       <r>   15.4842    0.0000 </r>
       <r>   15.4842    0.0000 </r>
       <r>   15.5921    0.0000 </r>
       <r>   15.5921    0.0000 </r>
       <r>   15.5921    0.0000 </r>
       <r>   15.6019    0.0000 </r>
       <r>   15.6019    0.0000 </r>
       <r>   15.7705    0.0000 </r>
       <r>   15.8967    0.0000 </r>
       <r>   15.8967    0.0000 </r>
       <r>   15.8967    0.0000 </r>
       <r>   22.5124    0.0000 </r>
       <r>   22.5124    0.0000 </r>
       <r>   22.5124    0.0000 </r>
       <r>   22.5736    0.0000 </r>
       <r>   22.5736    0.0000 </r>
       <r>   22.5768    0.0000 </r>
       <r>   22.5768    0.0000 </r>
       <r>   22.5768    0.0000 </r>
       <r>   24.3251    0.0000 </r>
       <r>   24.3501    0.0000 </r>
       <r>   24.3501    0.0000 </r>
       <r>   24.3501    0.0000 </r>
       <r>   31.5591    0.0000 </r>
       <r>   31.6529    0.0000 </r>
       <r>   31.6529    0.0000 </r>
       <r>   31.6529    0.0000 </r>
       <r>   34.0211    0.0000 </r>
       <r>   34.0211    0.0000 </r>
       <r>   34.0211    0.0000 </r>
       <r>   34.0368    0.0000 </r>
       <r>   34.0368    0.0000 </r>
       <r>   34.3055    0.0000 </r>
       <r>   34.3055    0.0000 </r>
       <r>   34.3055    0.0000 </r>
      </set>
     </set>
    </set>
   </array>
  </eigenvalues>
  <separator name="orbital magnetization" >
   <v name="MAGDIPOLOUT">      0.00000000      0.00000000      0.00000000</v>
  </separator>
  <dos>
   <i name="efermi">      7.34752784 </i>
   <total>
    <array>
     <dimension dim="1">gridpoints</dimension>
     <dimension dim="2">spin</dimension>
     <field>energy</field>
     <field>total</field>
     <field>integrated</field>
     <set>
      <set comment="spin 1">
       <r>   -53.4186     0.0000     0.0000 </r>
       <r>   -53.1015     0.0000     0.0000 </r>
       <r>   -52.7845     0.0000     0.0000 </r>
       <r>   -52.4674     0.0000     0.0000 </r>
       <r>   -52.1504     0.0000     0.0000 </r>
       <r>   -51.8333     0.0000     0.0000 </r>
       <r>   -51.5163     0.0000     0.0000 </r>
       <r>   -51.1992     0.0000     0.0000 </r>
       <r>   -50.8821    -0.0000    -0.0000 </r>
       <r>   -50.5651    -0.0000    -0.0000 </r>
       <r>   -50.2480    -0.0000    -0.0000 </r>
       <r>   -49.9310    -0.0000    -0.0000 </r>
       <r>   -49.6139    -0.0031    -0.0010 </r>
       <r>   -49.2969    -0.7678    -0.2444 </r>
       <r>   -48.9798    17.0922     5.1748 </r>
       <r>   -48.6627     9.3175     8.1290 </r>
       <r>   -48.3457    -0.4064     8.0001 </r>
       <r>   -48.0286    -0.0003     8.0000 </r>
       <r>   -47.7116    -0.0000     8.0000 </r>
       <r>   -47.3945     0.0000     8.0000 </r>
       <r>   -47.0774     0.0000     8.0000 </r>
       <r>   -46.7604     0.0000     8.0000 </r>
       <r>   -46.4433     0.0000     8.0000 </r>
       <r>   -46.1263     0.0000     8.0000 </r>
       <r>   -45.8092     0.0000     8.0000 </r>
       <r>   -45.4922     0.0000     8.0000 </r>
       <r>   -45.1751     0.0000     8.0000 </r>
       <r>   -44.8580     0.0000     8.0000 </r>
       <r>   -44.5410     0.0000     8.0000 </r>
       <r>   -44.2239     0.0000     8.0000 </r>
       <r>   -43.9069     0.0000     8.0000 </r>
       <r>   -43.5898     0.0000     8.0000 </r>
       <r>   -43.2728     0.0000     8.0000 </r>
       <r>   -42.9557     0.0000     8.0000 </r>
       <r>   -42.6386     0.0000     8.0000 </r>
       <r>   -42.3216     0.0000     8.0000 </r>
       <r>   -42.0045     0.0000     8.0000 </r>
       <r>   -41.6875     0.0000     8.0000 </r>
       <r>   -41.3704     0.0000     8.0000 </r>
       <r>   -41.0533     0.0000     8.0000 </r>
       <r>   -40.7363     0.0000     8.0000 </r>
       <r>   -40.4192     0.0000     8.0000 </r>
       <r>   -40.1022     0.0000     8.0000 </r>
       <r>   -39.7851     0.0000     8.0000 </r>
       <r>   -39.4681     0.0000     8.0000 </r>
       <r>   -39.1510     0.0000     8.0000 </r>
       <r>   -38.8339     0.0000     8.0000 </r>
       <r>   -38.5169     0.0000     8.0000 </r>
       <r>   -38.1998     0.0000     8.0000 </r>
       <r>   -37.8828     0.0000     8.0000 </r>
       <r>   -37.5657     0.0000     8.0000 </r>
       <r>   -37.2487     0.0000     8.0000 </r>
       <r>   -36.9316     0.0000     8.0000 </r>
       <r>   -36.6145     0.0000     8.0000 </r>
       <r>   -36.2975     0.0000     8.0000 </r>
       <r>   -35.9804     0.0000     8.0000 </r>
       <r>   -35.6634     0.0000     8.0000 </r>
       <r>   -35.3463     0.0000     8.0000 </r>
       <r>   -35.0293     0.0000     8.0000 </r>
       <r>   -34.7122     0.0000     8.0000 </r>
       <r>   -34.3951     0.0000     8.0000 </r>
       <r>   -34.0781     0.0000     8.0000 </r>
       <r>   -33.7610     0.0000     8.0000 </r>
       <r>   -33.4440     0.0000     8.0000 </r>
       <r>   -33.1269     0.0000     8.0000 </r>
       <r>   -32.8098     0.0000     8.0000 </r>
       <r>   -32.4928     0.0000     8.0000 </r>
       <r>   -32.1757     0.0000     8.0000 </r>
       <r>   -31.8587     0.0000     8.0000 </r>
       <r>   -31.5416     0.0000     8.0000 </r>
       <r>   -31.2246     0.0000     8.0000 </r>
       <r>   -30.9075     0.0000     8.0000 </r>
       <r>   -30.5904     0.0000     8.0000 </r>
       <r>   -30.2734     0.0000     8.0000 </r>
       <r>   -29.9563     0.0000     8.0000 </r>
       <r>   -29.6393     0.0000     8.0000 </r>
       <r>   -29.3222     0.0000     8.0000 </r>
       <r>   -29.0052     0.0000     8.0000 </r>
       <r>   -28.6881     0.0000     8.0000 </r>
       <r>   -28.3710     0.0000     8.0000 </r>
       <r>   -28.0540     0.0000     8.0000 </r>
       <r>   -27.7369     0.0000     8.0000 </r>
       <r>   -27.4199    -0.0000     8.0000 </r>
       <r>   -27.1028    -0.0000     8.0000 </r>
       <r>   -26.7857    -0.0000     8.0000 </r>
       <r>   -26.4687    -0.0000     8.0000 </r>
       <r>   -26.1516    -0.0102     7.9968 </r>
       <r>   -25.8346    -0.6949     7.7764 </r>
       <r>   -25.5175    18.5534    13.6589 </r>
       <r>   -25.2005    50.2597    29.5941 </r>
       <r>   -24.8834     7.9806    32.1244 </r>
       <r>   -24.5663    -0.3922    32.0001 </r>
       <r>   -24.2493    -0.0003    32.0000 </r>
       <r>   -23.9322    -0.0000    32.0000 </r>
       <r>   -23.6152     0.0000    32.0000 </r>
       <r>   -23.2981     0.0000    32.0000 </r>
       <r>   -22.9811     0.0000    32.0000 </r>
       <r>   -22.6640     0.0000    32.0000 </r>
       <r>   -22.3469     0.0000    32.0000 </r>
       <r>   -22.0299     0.0000    32.0000 </r>
       <r>   -21.7128     0.0000    32.0000 </r>
       <r>   -21.3958     0.0000    32.0000 </r>
       <r>   -21.0787     0.0000    32.0000 </r>
       <r>   -20.7617     0.0000    32.0000 </r>
       <r>   -20.4446     0.0000    32.0000 </r>
       <r>   -20.1275     0.0000    32.0000 </r>
       <r>   -19.8105     0.0000    32.0000 </r>
       <r>   -19.4934     0.0000    32.0000 </r>
       <r>   -19.1764     0.0000    32.0000 </r>
       <r>   -18.8593     0.0000    32.0000 </r>
       <r>   -18.5422     0.0000    32.0000 </r>
       <r>   -18.2252     0.0000    32.0000 </r>
       <r>   -17.9081     0.0000    32.0000 </r>
       <r>   -17.5911     0.0000    32.0000 </r>
       <r>   -17.2740     0.0000    32.0000 </r>
       <r>   -16.9570     0.0000    32.0000 </r>
       <r>   -16.6399     0.0000    32.0000 </r>
       <r>   -16.3228     0.0000    32.0000 </r>
       <r>   -16.0058     0.0000    32.0000 </r>
       <r>   -15.6887     0.0000    32.0000 </r>
       <r>   -15.3717     0.0000    32.0000 </r>
       <r>   -15.0546     0.0000    32.0000 </r>
       <r>   -14.7376     0.0000    32.0000 </r>
       <r>   -14.4205     0.0000    32.0000 </r>
       <r>   -14.1034     0.0000    32.0000 </r>
       <r>   -13.7864     0.0000    32.0000 </r>
       <r>   -13.4693     0.0000    32.0000 </r>
       <r>   -13.1523     0.0000    32.0000 </r>
       <r>   -12.8352     0.0000    32.0000 </r>
       <r>   -12.5181     0.0000    32.0000 </r>
       <r>   -12.2011     0.0000    32.0000 </r>
       <r>   -11.8840     0.0000    32.0000 </r>
       <r>   -11.5670     0.0000    32.0000 </r>
       <r>   -11.2499     0.0000    32.0000 </r>
       <r>   -10.9329     0.0000    32.0000 </r>
       <r>   -10.6158     0.0000    32.0000 </r>
       <r>   -10.2987     0.0000    32.0000 </r>
       <r>    -9.9817     0.0000    32.0000 </r>
       <r>    -9.6646     0.0000    32.0000 </r>
       <r>    -9.3476     0.0000    32.0000 </r>
       <r>    -9.0305     0.0000    32.0000 </r>
       <r>    -8.7135     0.0000    32.0000 </r>
       <r>    -8.3964     0.0000    32.0000 </r>
       <r>    -8.0793     0.0000    32.0000 </r>
       <r>    -7.7623     0.0000    32.0000 </r>
       <r>    -7.4452     0.0000    32.0000 </r>
       <r>    -7.1282     0.0000    32.0000 </r>
       <r>    -6.8111    -0.0000    32.0000 </r>
       <r>    -6.4941    -0.0000    32.0000 </r>
       <r>    -6.1770    -0.0000    32.0000 </r>
       <r>    -5.8599    -0.0000    32.0000 </r>
       <r>    -5.5429    -0.0002    31.9999 </r>
       <r>    -5.2258    -0.0027    31.9991 </r>
       <r>    -4.9088     0.1489    32.0463 </r>
       <r>    -4.5917     0.3952    32.1716 </r>
       <r>    -4.2746     0.5732    32.3533 </r>
       <r>    -3.9576     0.7542    32.5924 </r>
       <r>    -3.6405     0.9637    32.8980 </r>
       <r>    -3.3235     1.2379    33.2905 </r>
       <r>    -3.0064     1.6911    33.8267 </r>
       <r>    -2.6894     3.3837    34.8995 </r>
       <r>    -2.3723     4.8418    36.4346 </r>
       <r>    -2.0552     7.0204    38.6605 </r>
       <r>    -1.7382     3.7823    39.8597 </r>
       <r>    -1.4211     0.4669    40.0077 </r>
       <r>    -1.1041    -0.0242    40.0001 </r>
       <r>    -0.7870    -0.0002    40.0000 </r>
       <r>    -0.4700    -0.0000    40.0000 </r>
       <r>    -0.1529    -0.0000    40.0000 </r>
       <r>     0.1642    -0.0000    40.0000 </r>
       <r>     0.4812    -0.0000    40.0000 </r>
       <r>     0.7983    -0.0000    40.0000 </r>
       <r>     1.1153    -0.0015    39.9995 </r>
       <r>     1.4324     0.0187    40.0055 </r>
       <r>     1.7495     0.4369    40.1440 </r>
       <r>     2.0665     0.9431    40.4430 </r>
       <r>     2.3836     1.4851    40.9139 </r>
       <r>     2.7006     2.3927    41.6725 </r>
       <r>     3.0177     3.6754    42.8378 </r>
       <r>     3.3347     4.5502    44.2804 </r>
       <r>     3.6518     4.4958    45.7059 </r>
       <r>     3.9689     3.5257    46.8238 </r>
       <r>     4.2859     5.4516    48.5522 </r>
       <r>     4.6030     9.7873    51.6553 </r>
       <r>     4.9200    10.6201    55.0225 </r>
       <r>     5.2371     8.8090    57.8155 </r>
       <r>     5.5541     5.7115    59.6264 </r>
       <r>     5.8712     4.2712    60.9806 </r>
       <r>     6.1883     3.1400    61.9762 </r>
       <r>     6.5053     2.4594    62.7559 </r>
       <r>     6.8224     1.8490    63.3422 </r>
       <r>     7.1394     1.3685    63.7761 </r>
       <r>     7.4565     1.1117    64.1285 </r>
       <r>     7.7735     1.3685    64.5624 </r>
       <r>     8.0906     1.8737    65.1565 </r>
       <r>     8.4077     2.5599    65.9682 </r>
       <r>     8.7247     3.0304    66.9290 </r>
       <r>     9.0418     3.6056    68.0721 </r>
       <r>     9.3588     4.2815    69.4296 </r>
       <r>     9.6759     5.1985    71.0778 </r>
       <r>     9.9930     6.7470    73.2170 </r>
       <r>    10.3100    10.2377    76.4630 </r>
       <r>    10.6271    11.3057    80.0475 </r>
       <r>    10.9441     5.4092    81.7626 </r>
       <r>    11.2612    15.6494    86.7243 </r>
       <r>    11.5782     8.9527    89.5629 </r>
       <r>    11.8953     2.2186    90.2663 </r>
       <r>    12.2124     2.8782    91.1788 </r>
       <r>    12.5294     3.3233    92.2325 </r>
       <r>    12.8465     3.7462    93.4203 </r>
       <r>    13.1635     4.3870    94.8112 </r>
       <r>    13.4806     4.7822    96.3274 </r>
       <r>    13.7976     4.2773    97.6836 </r>
       <r>    14.1147     4.5010    99.1106 </r>
       <r>    14.4318     4.2153   100.4471 </r>
       <r>    14.7488     3.8668   101.6731 </r>
       <r>    15.0659     3.3840   102.7460 </r>
       <r>    15.3829     2.9173   103.6710 </r>
       <r>    15.7000     1.0651   104.0087 </r>
       <r>    16.0171     0.0257   104.0168 </r>
       <r>    16.3341     0.1779   104.0732 </r>
       <r>    16.6512     0.3073   104.1707 </r>
       <r>    16.9682     0.4463   104.3122 </r>
       <r>    17.2853     0.5897   104.4991 </r>
       <r>    17.6023     0.7140   104.7255 </r>
       <r>    17.9194     0.8843   105.0059 </r>
       <r>    18.2365     1.1354   105.3659 </r>
       <r>    18.5535     1.4716   105.8325 </r>
       <r>    18.8706     1.9917   106.4640 </r>
       <r>    19.1876     2.6679   107.3098 </r>
       <r>    19.5047     2.6922   108.1634 </r>
       <r>    19.8217     2.5115   108.9597 </r>
       <r>    20.1388     2.5933   109.7819 </r>
       <r>    20.4559     2.9934   110.7310 </r>
       <r>    20.7729     2.5068   111.5258 </r>
       <r>    21.0900     2.3173   112.2605 </r>
       <r>    21.4070     3.3706   113.3292 </r>
       <r>    21.7241     8.8398   116.1319 </r>
       <r>    22.0411     8.6004   118.8587 </r>
       <r>    22.3582     6.4735   120.9112 </r>
       <r>    22.6753     5.1053   122.5299 </r>
       <r>    22.9923     3.5086   123.6423 </r>
       <r>    23.3094     2.8779   124.5548 </r>
       <r>    23.6264     3.3462   125.6157 </r>
       <r>    23.9435     3.6575   126.7753 </r>
       <r>    24.2606     3.0200   127.7328 </r>
       <r>    24.5776     1.9150   128.3400 </r>
       <r>    24.8947     1.7213   128.8857 </r>
       <r>    25.2117     2.0006   129.5200 </r>
       <r>    25.5288     2.0256   130.1623 </r>
       <r>    25.8458     2.5938   130.9847 </r>
       <r>    26.1629     3.5642   132.1147 </r>
       <r>    26.4800     4.1700   133.4369 </r>
       <r>    26.7970     3.2106   134.4548 </r>
       <r>    27.1141     2.4606   135.2350 </r>
       <r>    27.4311     2.1462   135.9154 </r>
       <r>    27.7482     1.9670   136.5391 </r>
       <r>    28.0652     2.2146   137.2412 </r>
       <r>    28.3823     2.2006   137.9390 </r>
       <r>    28.6994     2.6907   138.7921 </r>
       <r>    29.0164     2.5041   139.5860 </r>
       <r>    29.3335     3.0858   140.5644 </r>
       <r>    29.6505     2.9881   141.5118 </r>
       <r>    29.9676     3.2919   142.5556 </r>
       <r>    30.2847     2.6284   143.3889 </r>
       <r>    30.6017     2.0226   144.0302 </r>
       <r>    30.9188     2.8386   144.9302 </r>
       <r>    31.2358     2.2825   145.6539 </r>
       <r>    31.5529     2.4438   146.4287 </r>
       <r>    31.8699     2.7300   147.2943 </r>
       <r>    32.1870     2.3613   148.0429 </r>
       <r>    32.5041     2.3715   148.7948 </r>
       <r>    32.8211     3.0682   149.7676 </r>
       <r>    33.1382     2.7038   150.6249 </r>
       <r>    33.4552     2.9036   151.5455 </r>
       <r>    33.7723     3.2034   152.5612 </r>
       <r>    34.0893     3.7597   153.7532 </r>
       <r>    34.4064     4.7077   155.2458 </r>
       <r>    34.7235     2.1720   155.9345 </r>
       <r>    35.0405     0.9986   156.2511 </r>
       <r>    35.3576     0.6322   156.4516 </r>
       <r>    35.6746     0.7045   156.6749 </r>
       <r>    35.9917     1.5471   157.1654 </r>
       <r>    36.3087     2.0023   157.8003 </r>
       <r>    36.6258     2.6801   158.6500 </r>
       <r>    36.9429     2.9080   159.5720 </r>
       <r>    37.2599     1.2849   159.9794 </r>
       <r>    37.5770     0.0702   160.0017 </r>
       <r>    37.8940    -0.0052   160.0000 </r>
       <r>    38.2111    -0.0000   160.0000 </r>
       <r>    38.5282    -0.0000   160.0000 </r>
       <r>    38.8452    -0.0000   160.0000 </r>
       <r>    39.1623     0.0000   160.0000 </r>
       <r>    39.4793     0.0000   160.0000 </r>
       <r>    39.7964     0.0000   160.0000 </r>
       <r>    40.1134     0.0000   160.0000 </r>
       <r>    40.4305     0.0000   160.0000 </r>
       <r>    40.7476     0.0000   160.0000 </r>
       <r>    41.0646     0.0000   160.0000 </r>
       <r>    41.3817     0.0000   160.0000 </r>
       <r>    41.6987     0.0000   160.0000 </r>
      </set>
     </set>
    </array>
   </total>
  </dos>
 </calculation>
 <structure name="finalpos" >
  <crystal>
   <varray name="basis" >
    <v>       4.30812230      -0.00000000       0.00000000 </v>
    <v>      -0.00000000       4.30812230       0.00000000 </v>
    <v>       0.00000000       0.00000000       4.30812230 </v>
   </varray>
   <i name="volume">     79.95839543 </i>
   <varray name="rec_basis" >
    <v>       0.23211969       0.00000000      -0.00000000 </v>
    <v>       0.00000000       0.23211969      -0.00000000 </v>
    <v>      -0.00000000      -0.00000000       0.23211969 </v>
   </varray>
  </crystal>
  <varray name="positions" >
   <v>       0.00000000       0.00000000      -0.00000000 </v>
   <v>      -0.00000000       0.50000000       0.50000000 </v>
   <v>       0.50000000       0.00000000       0.50000000 </v>
   <v>       0.50000000       0.50000000       0.00000000 </v>
   <v>       0.50000000       0.00000000       0.00000000 </v>
   <v>       0.50000000       0.50000000       0.50000000 </v>
   <v>       0.00000000      -0.00000000       0.50000000 </v>
   <v>       0.00000000       0.50000000       0.00000000 </v>
  </varray>
 </structure>
</modeling>
