 vasp.6.2.0 18Jan21 (build Apr 26 2024 13:53:28) complex                        
  
 executed on          skylake_el8 date 2025.06.04  08:23:42
 running on   40 total cores
 distrk:  each k-point on   40 cores,    1 groups
 distr:  one band on NCORE=   1 cores,   40 groups


--------------------------------------------------------------------------------------------------------


 INCAR:
   SYSTEM = VASPcalc
   PREC = Normal
   LHFCALC = .TRUE.
   HFSCREEN = 0.2
   GGA = PE
   LASPH = .TRUE.
   LMAXMIX = 4
   LDAUPRINT = 1
   ISYM = 3
   ALGO = Conjugate
   EDIFF = 1e-04
   NELM = 300
   ENCUT = 550
   ISPIN = 2
   ISMEAR = 0
   SIGMA = 0.02
   LORBIT = 11
   NUPDOWN = 20
   MAGMOM = 4*5.0 4*0.0 24*0 24*0 4*0
   ISIF = 2
   IBRION = 1
   EDIFFG = -1e-02
   POTIM = 0.02
   NSW = 500
   NFREE = 15
   LREAL = Auto
   ISTART = 1
   LWAVE = .TRUE.
   LCHARG = .FALSE.

 POTCAR:    PAW_PBE Fe_sv 23Jul2007               
 POTCAR:    PAW_PBE Fe_sv 23Jul2007               
 POTCAR:    PAW_PBE C 08Apr2002                   
 POTCAR:    PAW_PBE N 08Apr2002                   
 POTCAR:    PAW_PBE Na_pv 19Sep2006               
 -----------------------------------------------------------------------------
|                                                                             |
|           W    W    AA    RRRRR   N    N  II  N    N   GGGG   !!!           |
|           W    W   A  A   R    R  NN   N  II  NN   N  G    G  !!!           |
|           W    W  A    A  R    R  N N  N  II  N N  N  G       !!!           |
|           W WW W  AAAAAA  RRRRR   N  N N  II  N  N N  G  GGG   !            |
|           WW  WW  A    A  R   R   N   NN  II  N   NN  G    G                |
|           W    W  A    A  R    R  N    N  II  N    N   GGGG   !!!           |
|                                                                             |
|     For optimal performance we recommend to set                             |
|       NCORE = 2 up to number-of-cores-per-socket                            |
|     NCORE specifies how many cores store one orbital (NPAR=cpu/NCORE).      |
|     This setting can greatly improve the performance of VASP for DFT.       |
|     The default, NCORE=1 might be grossly inefficient on modern             |
|     multi-core architectures or massively parallel machines. Do your        |
|     own testing! More info at https://www.vasp.at/wiki/index.php/NCORE      |
|     Unfortunately you need to use the default for GW and RPA                |
|     calculations (for HF NCORE is supported but not extensively tested      |
|     yet).                                                                   |
|                                                                             |
 -----------------------------------------------------------------------------

 POTCAR:    PAW_PBE Fe_sv 23Jul2007               
   VRHFIN =Fe:  d7 s1                                                                               
   LEXCH  = PE                                                                                      
   EATOM  =  3377.7275 eV,  248.2560 Ry                                                             
                                                                                                    
   TITEL  = PAW_PBE Fe_sv 23Jul2007                                                                 
   LULTRA =        F    use ultrasoft PP ?                                                          
   IUNSCR =        1    unscreen: 0-lin 1-nonlin 2-no                                               
   RPACOR =    1.600    partial core radius                                                         
   POMASS =   55.847; ZVAL   =   16.000    mass and valenz                                          
   RCORE  =    1.900    outmost cutoff radius                                                       
   RWIGS  =    2.000; RWIGS  =    1.058    wigner-seitz radius (au A)                               
   ENMAX  =  390.558; ENMIN  =  292.918 eV                                                          
   RCLOC  =    1.001    cutoff for local pot                                                        
   LCOR   =        T    correct aug charges                                                         
   LPAW   =        T    paw PP                                                                      
   EAUG   =  739.756                                                                                
   RMAX   =    1.943    core radius for proj-oper                                                   
   RAUG   =    1.300    factor for augmentation sphere                                              
   RDEP   =    1.909    radius for radial grids                                                     
   RDEPT  =    1.512    core radius for aug-charge                                                  
                                                                                                    
   Atomic configuration                                                                             
    8 entries                                                                                       
     n  l   j            E        occ.                                                              
     1  0  0.50     -6993.8440   2.0000                                                             
     2  0  0.50      -814.6047   2.0000                                                             
     2  1  1.50      -693.3689   6.0000                                                             
     3  0  0.50       -89.4732   2.0000                                                             
     4  0  0.50        -4.2551   1.0000                                                             
     3  1  1.50       -55.6373   6.0000                                                             
     3  2  2.50        -3.8151   7.0000                                                             
     4  3  2.50        -1.3606   0.0000                                                             
   Description                                                                                      
     l       E           TYP  RCUT    TYP  RCUT                                                     
     0    -89.4732019     23  1.900                                                                 
     0     -4.2550997     23  1.900                                                                 
     0     54.4233040     23  1.900                                                                 
     1    -55.6372848     23  1.650                                                                 
     1     20.4087390     23  1.650                                                                 
     2     -3.8151244     23  1.900                                                                 
     2     -5.1757070     23  1.900                                                                 
  local pseudopotential read in
  partial core-charges read in
  partial kinetic energy density read in
  atomic valenz-charges read in
  non local Contribution for L=           0  read in
    real space projection operators read in
  non local Contribution for L=           0  read in
    real space projection operators read in
  non local Contribution for L=           0  read in
    real space projection operators read in
  non local Contribution for L=           1  read in
    real space projection operators read in
  non local Contribution for L=           1  read in
    real space projection operators read in
  non local Contribution for L=           2  read in
    real space projection operators read in
  non local Contribution for L=           2  read in
    real space projection operators read in
    PAW grid and wavefunctions read in
 
   number of l-projection  operators is LMAX  =           7
   number of lm-projection operators is LMMAX =          19
 
 POTCAR:    PAW_PBE Fe_sv 23Jul2007               
   VRHFIN =Fe:  d7 s1                                                                               
   LEXCH  = PE                                                                                      
   EATOM  =  3377.7275 eV,  248.2560 Ry                                                             
                                                                                                    
   TITEL  = PAW_PBE Fe_sv 23Jul2007                                                                 
   LULTRA =        F    use ultrasoft PP ?                                                          
   IUNSCR =        1    unscreen: 0-lin 1-nonlin 2-no                                               
   RPACOR =    1.600    partial core radius                                                         
   POMASS =   55.847; ZVAL   =   16.000    mass and valenz                                          
   RCORE  =    1.900    outmost cutoff radius                                                       
   RWIGS  =    2.000; RWIGS  =    1.058    wigner-seitz radius (au A)                               
   ENMAX  =  390.558; ENMIN  =  292.918 eV                                                          
   RCLOC  =    1.001    cutoff for local pot                                                        
   LCOR   =        T    correct aug charges                                                         
   LPAW   =        T    paw PP                                                                      
   EAUG   =  739.756                                                                                
   RMAX   =    1.943    core radius for proj-oper                                                   
   RAUG   =    1.300    factor for augmentation sphere                                              
   RDEP   =    1.909    radius for radial grids                                                     
   RDEPT  =    1.512    core radius for aug-charge                                                  
                                                                                                    
   Atomic configuration                                                                             
    8 entries                                                                                       
     n  l   j            E        occ.                                                              
     1  0  0.50     -6993.8440   2.0000                                                             
     2  0  0.50      -814.6047   2.0000                                                             
     2  1  1.50      -693.3689   6.0000                                                             
     3  0  0.50       -89.4732   2.0000                                                             
     4  0  0.50        -4.2551   1.0000                                                             
     3  1  1.50       -55.6373   6.0000                                                             
     3  2  2.50        -3.8151   7.0000                                                             
     4  3  2.50        -1.3606   0.0000                                                             
   Description                                                                                      
     l       E           TYP  RCUT    TYP  RCUT                                                     
     0    -89.4732019     23  1.900                                                                 
     0     -4.2550997     23  1.900                                                                 
     0     54.4233040     23  1.900                                                                 
     1    -55.6372848     23  1.650                                                                 
     1     20.4087390     23  1.650                                                                 
     2     -3.8151244     23  1.900                                                                 
     2     -5.1757070     23  1.900                                                                 
  local pseudopotential read in
  partial core-charges read in
  partial kinetic energy density read in
  atomic valenz-charges read in
  non local Contribution for L=           0  read in
    real space projection operators read in
  non local Contribution for L=           0  read in
    real space projection operators read in
  non local Contribution for L=           0  read in
    real space projection operators read in
  non local Contribution for L=           1  read in
    real space projection operators read in
  non local Contribution for L=           1  read in
    real space projection operators read in
  non local Contribution for L=           2  read in
    real space projection operators read in
  non local Contribution for L=           2  read in
    real space projection operators read in
    PAW grid and wavefunctions read in
 
   number of l-projection  operators is LMAX  =           7
   number of lm-projection operators is LMMAX =          19
 
 POTCAR:    PAW_PBE C 08Apr2002                   
   VRHFIN =C: s2p2                                                                                  
   LEXCH  = PE                                                                                      
   EATOM  =   147.1560 eV,   10.8157 Ry                                                             
                                                                                                    
   TITEL  = PAW_PBE C 08Apr2002                                                                     
   LULTRA =        F    use ultrasoft PP ?                                                          
   IUNSCR =        1    unscreen: 0-lin 1-nonlin 2-no                                               
   RPACOR =    1.200    partial core radius                                                         
   POMASS =   12.011; ZVAL   =    4.000    mass and valenz                                          
   RCORE  =    1.500    outmost cutoff radius                                                       
   RWIGS  =    1.630; RWIGS  =    0.863    wigner-seitz radius (au A)                               
   ENMAX  =  400.000; ENMIN  =  300.000 eV                                                          
   ICORE  =        2    local potential                                                             
   LCOR   =        T    correct aug charges                                                         
   LPAW   =        T    paw PP                                                                      
   EAUG   =  644.873                                                                                
   DEXC   =    0.000                                                                                
   RMAX   =    1.529    core radius for proj-oper                                                   
   RAUG   =    1.300    factor for augmentation sphere                                              
   RDEP   =    1.501    radius for radial grids                                                     
   RDEPT  =    1.300    core radius for aug-charge                                                  
                                                                                                    
   Atomic configuration                                                                             
    4 entries                                                                                       
     n  l   j            E        occ.                                                              
     1  0  0.50      -273.3789   2.0000                                                             
     2  0  0.50       -13.7508   2.0000                                                             
     2  1  0.50        -5.2854   2.0000                                                             
     3  2  1.50        -5.4423   0.0000                                                             
   Description                                                                                      
     l       E           TYP  RCUT    TYP  RCUT                                                     
     0    -13.7508458     23  1.200                                                                 
     0     -8.2022199     23  1.200                                                                 
     1     -5.2854383     23  1.500                                                                 
     1     34.0145650     23  1.500                                                                 
     2     -5.4423304      7  1.500                                                                 
  local pseudopotential read in
  partial core-charges read in
  partial kinetic energy density read in
  atomic valenz-charges read in
  non local Contribution for L=           0  read in
    real space projection operators read in
  non local Contribution for L=           0  read in
    real space projection operators read in
  non local Contribution for L=           1  read in
    real space projection operators read in
  non local Contribution for L=           1  read in
    real space projection operators read in
    PAW grid and wavefunctions read in
 
   number of l-projection  operators is LMAX  =           4
   number of lm-projection operators is LMMAX =           8
 
 POTCAR:    PAW_PBE N 08Apr2002                   
   VRHFIN =N: s2p3                                                                                  
   LEXCH  = PE                                                                                      
   EATOM  =   264.5486 eV,   19.4438 Ry                                                             
                                                                                                    
   TITEL  = PAW_PBE N 08Apr2002                                                                     
   LULTRA =        F    use ultrasoft PP ?                                                          
   IUNSCR =        1    unscreen: 0-lin 1-nonlin 2-no                                               
   RPACOR =    1.200    partial core radius                                                         
   POMASS =   14.001; ZVAL   =    5.000    mass and valenz                                          
   RCORE  =    1.500    outmost cutoff radius                                                       
   RWIGS  =    1.400; RWIGS  =    0.741    wigner-seitz radius (au A)                               
   ENMAX  =  400.000; ENMIN  =  300.000 eV                                                          
   ICORE  =        2    local potential                                                             
   LCOR   =        T    correct aug charges                                                         
   LPAW   =        T    paw PP                                                                      
   EAUG   =  627.112                                                                                
   DEXC   =    0.000                                                                                
   RMAX   =    1.529    core radius for proj-oper                                                   
   RAUG   =    1.300    factor for augmentation sphere                                              
   RDEP   =    1.514    radius for radial grids                                                     
   RDEPT  =    1.338    core radius for aug-charge                                                  
                                                                                                    
   Atomic configuration                                                                             
    4 entries                                                                                       
     n  l   j            E        occ.                                                              
     1  0  0.50      -384.7179   2.0000                                                             
     2  0  0.50       -18.5828   2.0000                                                             
     2  1  0.50        -7.0898   3.0000                                                             
     3  2  1.50        -6.8029   0.0000                                                             
   Description                                                                                      
     l       E           TYP  RCUT    TYP  RCUT                                                     
     0    -18.5828119     23  1.200                                                                 
     0    -13.5018863     23  1.200                                                                 
     1     -7.0897853     23  1.500                                                                 
     1      9.5240782     23  1.500                                                                 
     2     -6.8029130      7  1.500                                                                 
  local pseudopotential read in
  partial core-charges read in
  partial kinetic energy density read in
  atomic valenz-charges read in
  non local Contribution for L=           0  read in
    real space projection operators read in
  non local Contribution for L=           0  read in
    real space projection operators read in
  non local Contribution for L=           1  read in
    real space projection operators read in
  non local Contribution for L=           1  read in
    real space projection operators read in
    PAW grid and wavefunctions read in
 
   number of l-projection  operators is LMAX  =           4
   number of lm-projection operators is LMMAX =           8
 
 POTCAR:    PAW_PBE Na_pv 19Sep2006               
   VRHFIN =Na: p6s1                                                                                 
   LEXCH  = PE                                                                                      
   EATOM  =   766.0439 eV,   56.3026 Ry                                                             
                                                                                                    
   TITEL  = PAW_PBE Na_pv 19Sep2006                                                                 
   LULTRA =        F    use ultrasoft PP ?                                                          
   IUNSCR =        1    unscreen: 0-lin 1-nonlin 2-no                                               
   RPACOR =    1.800    partial core radius                                                         
   POMASS =   22.990; ZVAL   =    7.000    mass and valenz                                          
   RCORE  =    2.200    outmost cutoff radius                                                       
   RWIGS  =    2.200; RWIGS  =    1.164    wigner-seitz radius (au A)                               
   ENMAX  =  259.561; ENMIN  =  194.671 eV                                                          
   ICORE  =        2    local potential                                                             
   LCOR   =        T    correct aug charges                                                         
   LPAW   =        T    paw PP                                                                      
   EAUG   =  368.056                                                                                
   DEXC   =    0.000                                                                                
   RMAX   =    2.245    core radius for proj-oper                                                   
   RAUG   =    1.300    factor for augmentation sphere                                              
   RDEP   =    2.259    radius for radial grids                                                     
   RDEPT  =    1.738    core radius for aug-charge                                                  
                                                                                                    
   Atomic configuration                                                                             
    5 entries                                                                                       
     n  l   j            E        occ.                                                              
     1  0  0.50     -1033.6933   2.0000                                                             
     2  0  0.50       -56.7526   2.0000                                                             
     2  1  1.50       -28.6721   6.0000                                                             
     3  0  0.50        -2.7440   1.0000                                                             
     3  2  1.50        -1.3606   0.0000                                                             
   Description                                                                                      
     l       E           TYP  RCUT    TYP  RCUT                                                     
     1    -28.6720912     23  2.000                                                                 
     1      6.8029130     23  2.000                                                                 
     0     -2.7439560     23  2.200                                                                 
     0     34.0145650     23  2.200                                                                 
     2     -1.3605826     23  2.200                                                                 
  local pseudopotential read in
  partial core-charges read in
  partial kinetic energy density read in
  atomic valenz-charges read in
  non local Contribution for L=           1  read in
    real space projection operators read in
  non local Contribution for L=           1  read in
    real space projection operators read in
  non local Contribution for L=           0  read in
    real space projection operators read in
  non local Contribution for L=           0  read in
    real space projection operators read in
    PAW grid and wavefunctions read in
 
   number of l-projection  operators is LMAX  =           4
   number of lm-projection operators is LMMAX =           8
 
 Optimization of the real space projectors (new method)

 maximal supplied QI-value         = 19.84
 optimisation between [QCUT,QGAM] = [ 11.91, 24.01] = [ 39.69,161.42] Ry 
 Optimized for a Real-space Cutoff    1.18 Angstroem

   l    n(q)    QCUT    max X(q) W(low)/X(q) W(high)/X(q)  e(spline) 
   0      8    11.905     3.687    0.12E-03    0.10E-03    0.60E-07
   0      8    11.905    15.934    0.42E-03    0.41E-03    0.18E-06
   0      8    11.905     5.511    0.33E-03    0.30E-03    0.15E-06
   1      8    11.905     2.081    0.86E-04    0.25E-03    0.31E-06
   1      8    11.905     6.715    0.67E-04    0.18E-03    0.35E-06
   2      7    11.905   104.055    0.48E-03    0.16E-03    0.27E-06
   2      7    11.905    96.668    0.48E-03    0.16E-03    0.27E-06
 Optimization of the real space projectors (new method)

 maximal supplied QI-value         = 19.84
 optimisation between [QCUT,QGAM] = [ 11.91, 24.01] = [ 39.69,161.42] Ry 
 Optimized for a Real-space Cutoff    1.18 Angstroem

   l    n(q)    QCUT    max X(q) W(low)/X(q) W(high)/X(q)  e(spline) 
   0      8    11.905     3.687    0.12E-03    0.10E-03    0.60E-07
   0      8    11.905    15.934    0.42E-03    0.41E-03    0.18E-06
   0      8    11.905     5.511    0.33E-03    0.30E-03    0.15E-06
   1      8    11.905     2.081    0.86E-04    0.25E-03    0.31E-06
   1      8    11.905     6.715    0.67E-04    0.18E-03    0.35E-06
   2      7    11.905   104.055    0.48E-03    0.16E-03    0.27E-06
   2      7    11.905    96.668    0.48E-03    0.16E-03    0.27E-06
 Optimization of the real space projectors (new method)

 maximal supplied QI-value         = 25.13
 optimisation between [QCUT,QGAM] = [ 11.81, 23.88] = [ 39.08,159.64] Ry 
 Optimized for a Real-space Cutoff    1.05 Angstroem

   l    n(q)    QCUT    max X(q) W(low)/X(q) W(high)/X(q)  e(spline) 
   0      7    11.813   115.676    0.42E-03    0.31E-03    0.23E-06
   0      7    11.813    87.132    0.42E-03    0.31E-03    0.23E-06
   1      7    11.813     4.429    0.34E-03    0.52E-04    0.16E-06
   1      7    11.813     2.733    0.27E-03    0.31E-04    0.13E-06
 Optimization of the real space projectors (new method)

 maximal supplied QI-value         = 25.13
 optimisation between [QCUT,QGAM] = [ 11.81, 23.88] = [ 39.08,159.64] Ry 
 Optimized for a Real-space Cutoff    1.25 Angstroem

   l    n(q)    QCUT    max X(q) W(low)/X(q) W(high)/X(q)  e(spline) 
   0      9    11.813    79.467    0.37E-04    0.68E-04    0.41E-06
   0      9    11.813    66.151    0.38E-04    0.67E-04    0.41E-06
   1      8    11.813    20.169    0.33E-03    0.30E-03    0.71E-06
   1      8    11.813    14.454    0.33E-03    0.31E-03    0.72E-06
 Optimization of the real space projectors (new method)

 maximal supplied QI-value         = 17.01
 optimisation between [QCUT,QGAM] = [ 11.91, 23.98] = [ 39.69,161.04] Ry 
 Optimized for a Real-space Cutoff    1.25 Angstroem

   l    n(q)    QCUT    max X(q) W(low)/X(q) W(high)/X(q)  e(spline) 
   1      8    11.905     4.940    0.26E-03    0.54E-03    0.21E-06
   1      8    11.905     6.253    0.39E-03    0.79E-03    0.32E-06
   0      9    11.905    37.438    0.16E-03    0.14E-03    0.50E-07
   0      9    11.905     9.606    0.11E-03    0.10E-03    0.34E-07
  PAW_PBE Fe_sv 23Jul2007               :
 energy of atom  1       EATOM=-3377.7275
 kinetic energy error for atom=    0.0677 (will be added to EATOM!!)
  PAW_PBE Fe_sv 23Jul2007               :
 energy of atom  2       EATOM=-3377.7275
 kinetic energy error for atom=    0.0677 (will be added to EATOM!!)
  PAW_PBE C 08Apr2002                   :
 energy of atom  3       EATOM= -147.1560
 kinetic energy error for atom=    0.0066 (will be added to EATOM!!)
  PAW_PBE N 08Apr2002                   :
 energy of atom  4       EATOM= -264.5486
 kinetic energy error for atom=    0.0116 (will be added to EATOM!!)
  PAW_PBE Na_pv 19Sep2006               :
 energy of atom  5       EATOM= -766.0439
 kinetic energy error for atom=    0.0018 (will be added to EATOM!!)
 
 
 POSCAR: Prussian Blue, adapted from Crystallogra
  positions in direct lattice
  velocities in cartesian coordinates
 exchange correlation table for  LEXCH =        8
   RHO(1)=    0.500       N(1)  =     2000
   RHO(2)=  100.500       N(2)  =     4000
 


--------------------------------------------------------------------------------------------------------


 ion  position               nearest neighbor table
   1  0.000  0.004  0.496-  44 2.02  33 2.02  48 2.06  47 2.06  43 2.11  34 2.11
   2  0.500  0.996  0.996-  55 2.04  45 2.04  35 2.04  36 2.04  46 2.12  56 2.12
   3  0.000  0.496  0.004-  37 2.02  40 2.02  54 2.06  53 2.06  38 2.11  39 2.11
   4  0.500  0.504  0.504-  52 2.04  50 2.04  41 2.04  42 2.04  51 2.12  49 2.12
   5  0.000  0.001  0.001-   9 1.88  13 1.88  14 1.89  10 1.89  11 1.90  12 1.90
   6  0.000  0.499  0.499-  16 1.88  20 1.88  19 1.89  15 1.89  17 1.90  18 1.90
   7  0.500  0.000  0.500-  22 1.86  25 1.86  26 1.86  21 1.86  24 1.89  23 1.89
   8  0.500  0.500  0.000-  32 1.86  27 1.86  28 1.86  31 1.86  30 1.89  29 1.89
   9  0.000  0.001  0.185-  33 1.16   5 1.88
  10  0.000  0.003  0.816-  34 1.17   5 1.89
  11  0.186  0.001  0.001-  35 1.17   5 1.90
  12  0.814  0.001  0.001-  36 1.17   5 1.90
  13  0.000  0.185  0.001-  37 1.16   5 1.88
  14  0.000  0.816  0.003-  38 1.17   5 1.89
  15  0.000  0.497  0.684-  39 1.17   6 1.89
  16  0.000  0.499  0.315-  40 1.16   6 1.88
  17  0.186  0.499  0.499-  41 1.17   6 1.90
  18  0.814  0.499  0.499-  42 1.17   6 1.90
  19  0.000  0.684  0.497-  43 1.17   6 1.89
  20  0.000  0.315  0.499-  44 1.16   6 1.88
  21  0.500  0.999  0.682-  45 1.17   7 1.86
  22  0.500  0.000  0.318-  46 1.17   7 1.86
  23  0.685  1.000  0.500-  47 1.16   7 1.89
  24  0.315  1.000  0.500-  48 1.16   7 1.89
  25  0.500  0.182  0.500-  49 1.17   7 1.86
  26  0.500  0.818  0.501-  50 1.17   7 1.86
  27  0.500  0.500  0.182-  51 1.17   8 1.86
  28  0.500  0.501  0.818-  52 1.17   8 1.86
  29  0.685  0.500  1.000-  53 1.16   8 1.89
  30  0.315  0.500  1.000-  54 1.16   8 1.89
  31  0.500  0.682  0.999-  55 1.17   8 1.86
  32  0.500  0.318  0.000-  56 1.17   8 1.86
  33  0.000  1.000  0.299-   9 1.16   1 2.02
  34  0.000  0.996  0.702-  10 1.17   1 2.11
  35  0.300  1.000  1.000-  11 1.17   2 2.04
  36  0.700  1.000  1.000-  12 1.17   2 2.04
  37  0.000  0.299  1.000-  13 1.16   3 2.02
  38  0.000  0.702  0.996-  14 1.17   3 2.11
  39  0.000  0.504  0.798-  15 1.17   3 2.11
  40  0.000  0.500  0.201-  16 1.16   3 2.02
  41  0.300  0.500  0.500-  17 1.17   4 2.04
  42  0.700  0.500  0.500-  18 1.17   4 2.04
  43  0.000  0.798  0.504-  19 1.17   1 2.11
  44  0.000  0.201  0.500-  20 1.16   1 2.02
  45  0.500  0.005  0.796-  21 1.17   2 2.04
  46  0.500  0.001  0.203-  22 1.17   2 2.12
  47  0.799  0.000  0.500-  23 1.16   1 2.06
  48  0.201  0.000  0.500-  24 1.16   1 2.06
  49  0.500  0.297  0.499-  25 1.17   4 2.12
  50  0.500  0.704  0.495-  26 1.17   4 2.04
  51  0.500  0.499  0.297-  27 1.17   4 2.12
  52  0.500  0.495  0.704-  28 1.17   4 2.04
  53  0.799  0.500  0.000-  29 1.16   3 2.06
  54  0.201  0.500  0.000-  30 1.16   3 2.06
  55  0.500  0.796  0.005-  31 1.17   2 2.04
  56  0.500  0.203  0.001-  32 1.17   2 2.12
  57  0.500  0.250  0.250-
  58  0.500  0.750  0.250-
  59  0.000  0.750  0.750-
  60  0.500  0.250  0.750-
 
  LATTYP: Found a simple cubic cell.
 ALAT       =    10.2219139335
  
  Lattice vectors:
  
 A1 = (  10.2219139335,   0.0000000000,   0.0000000000)
 A2 = (   0.0000000000,  10.2219139335,   0.0000000000)
 A3 = (   0.0000000000,   0.0000000000,  10.2219139335)


Analysis of symmetry for initial positions (statically):
=====================================================================
 Subroutine PRICEL returns:
 Original cell was already a primitive cell.
 

 Routine SETGRP: Setting up the symmetry group for a 
 simple cubic supercell.


 Subroutine GETGRP returns: Found  8 space group operations
 (whereof  4 operations were pure point group operations)
 out of a pool of 48 trial point group operations.


The static configuration has the point symmetry C_2v.
 The point group associated with its full space group is D_2h.


Analysis of symmetry for dynamics (positions and initial velocities):
=====================================================================
 Subroutine PRICEL returns:
 Original cell was already a primitive cell.
 

 Routine SETGRP: Setting up the symmetry group for a 
 simple cubic supercell.


 Subroutine GETGRP returns: Found  8 space group operations
 (whereof  4 operations were pure point group operations)
 out of a pool of 48 trial point group operations.


The dynamic configuration has the point symmetry C_2v.
 The point group associated with its full space group is D_2h.


Analysis of structural, dynamic, and magnetic symmetry:
=====================================================================
 Subroutine PRICEL returns:
 Original cell was already a primitive cell.
 

 Routine SETGRP: Setting up the symmetry group for a 
 simple cubic supercell.


 Subroutine GETGRP returns: Found  8 space group operations
 (whereof  4 operations were pure point group operations)
 out of a pool of 48 trial point group operations.


The overall configuration has the point symmetry C_2v.
 The point group associated with its full space group is D_2h.


 Subroutine INISYM returns: Found  8 space group operations
 (whereof  4 operations are pure point group operations),
 and found     1 'primitive' translations


----------------------------------------------------------------------------------------

                                     Primitive cell                                     

  volume of cell :    1068.0625

  direct lattice vectors                    reciprocal lattice vectors
    10.221913934  0.000000000  0.000000000     0.097829037  0.000000000  0.000000000
     0.000000000 10.221913934  0.000000000     0.000000000  0.097829037  0.000000000
     0.000000000  0.000000000 10.221913934     0.000000000  0.000000000  0.097829037

  length of vectors
    10.221913934 10.221913934 10.221913934     0.097829037  0.097829037  0.097829037

  position of ions in fractional coordinates (direct lattice)
     0.000000000  0.004025309  0.495974691
     0.500000000  0.995943605  0.995943605
     0.000000000  0.495974691  0.004025309
     0.500000000  0.504056395  0.504056395
     0.000000000  0.000969083  0.000969083
     0.000000000  0.499030917  0.499030917
     0.500000000  0.000181614  0.499818386
     0.500000000  0.499818386  0.000181614
     0.000000000  0.000757536  0.184971613
     0.000000000  0.002540781  0.816340273
     0.185577094  0.000955348  0.000955348
     0.814422877  0.000955348  0.000955348
     0.000000000  0.184971613  0.000757536
     0.000000000  0.816340273  0.002540781
     0.000000000  0.497459219  0.683659727
     0.000000000  0.499242464  0.315028387
     0.185577094  0.499044652  0.499044652
     0.814422877  0.499044652  0.499044652
     0.000000000  0.683659727  0.497459219
     0.000000000  0.315028387  0.499242464
     0.500000000  0.998544876  0.682242395
     0.500000000  0.000329705  0.317737384
     0.685185837  0.999977683  0.500022317
     0.314814192  0.999977683  0.500022317
     0.500000000  0.182262616  0.499670295
     0.500000000  0.817757605  0.501455124
     0.500000000  0.499670295  0.182262616
     0.500000000  0.501455124  0.817757605
     0.685185837  0.500022317  0.999977683
     0.314814192  0.500022317  0.999977683
     0.500000000  0.682242395  0.998544876
     0.500000000  0.317737384  0.000329705
     0.000000000  0.999822106  0.298785895
     0.000000000  0.996266637  0.702298798
     0.300061837  0.999816894  0.999816894
     0.699938192  0.999816894  0.999816894
     0.000000000  0.298785895  0.999822106
     0.000000000  0.702298798  0.996266637
     0.000000000  0.503733363  0.797701202
     0.000000000  0.500177894  0.201214105
     0.300061837  0.500183106  0.500183106
     0.699938192  0.500183106  0.500183106
     0.000000000  0.797701202  0.503733363
     0.000000000  0.201214105  0.500177894
     0.500000000  0.005074854  0.796143242
     0.500000000  0.001024949  0.203320063
     0.798649579  0.000433540  0.499566460
     0.201350392  0.000433540  0.499566460
     0.500000000  0.296679937  0.498975051
     0.500000000  0.703856758  0.494925146
     0.500000000  0.498975051  0.296679937
     0.500000000  0.494925146  0.703856758
     0.798649579  0.499566460  0.000433540
     0.201350392  0.499566460  0.000433540
     0.500000000  0.796143242  0.005074854
     0.500000000  0.203320063  0.001024949
     0.500000000  0.250000000  0.250000000
     0.500000000  0.750000000  0.250000000
     0.000000000  0.750000000  0.750000000
     0.500000000  0.250000000  0.750000000

  ion indices of the primitive-cell ions
   primitive index   ion index
                 1           1
                 2           2
                 3           3
                 4           4
                 5           5
                 6           6
                 7           7
                 8           8
                 9           9
                10          10
                11          11
                12          12
                13          13
                14          14
                15          15
                16          16
                17          17
                18          18
                19          19
                20          20
                21          21
                22          22
                23          23
                24          24
                25          25
                26          26
                27          27
                28          28
                29          29
                30          30
                31          31
                32          32
                33          33
                34          34
                35          35
                36          36
                37          37
                38          38
                39          39
                40          40
                41          41
                42          42
                43          43
                44          44
                45          45
                46          46
                47          47
                48          48
                49          49
                50          50
                51          51
                52          52
                53          53
                54          54
                55          55
                56          56
                57          57
                58          58
                59          59
                60          60

----------------------------------------------------------------------------------------

 
 
 KPOINTS: Automatic mesh                          

Automatic generation of k-mesh.
 Grid dimensions read from file:
 generate k-points for:    1    1    1

 Generating k-lattice:

  Cartesian coordinates                     Fractional coordinates (reciprocal lattice)
     0.097829037  0.000000000  0.000000000     1.000000000  0.000000000  0.000000000
     0.000000000  0.097829037  0.000000000     0.000000000  1.000000000  0.000000000
     0.000000000  0.000000000  0.097829037     0.000000000  0.000000000  1.000000000

  Length of vectors
     0.097829037  0.097829037  0.097829037

  Shift w.r.t. Gamma in fractional coordinates (k-lattice)
     0.000000000  0.000000000  0.000000000

 
 Subroutine IBZKPT returns following result:
 ===========================================
 
 Found      1 irreducible k-points:
 
 Following reciprocal coordinates:
            Coordinates               Weight
  0.000000  0.000000  0.000000      1.000000
 
 Following cartesian coordinates:
            Coordinates               Weight
  0.000000  0.000000  0.000000      1.000000
 
 
 Subroutine IBZKPT_HF returns following result:
 ==============================================
 
 Found      1 k-points in 1st BZ
 the following      1 k-points will be used (e.g. in the exchange kernel)
 Following reciprocal coordinates:   # in IRBZ
  0.000000  0.000000  0.000000    1.00000000   1 t-inv F


--------------------------------------------------------------------------------------------------------




 Dimension of arrays:
   k-points           NKPTS =      1   k-points in BZ     NKDIM =      1   number of bands    NBANDS=    240
   number of dos      NEDOS =    301   number of ions     NIONS =     60
   non local maximal  LDIM  =      7   non local SUM 2l+1 LMDIM =     19
   total plane-waves  NPLWV = 216000
   max r-space proj   IRMAX =   1700   max aug-charges    IRDMAX=   5734
   dimension x,y,z NGX =    60 NGY =   60 NGZ =   60
   dimension x,y,z NGXF=   120 NGYF=  120 NGZF=  120
   support grid    NGXF=   120 NGYF=  120 NGZF=  120
   ions per type =               4   4  24  24   4
   NGX,Y,Z   is equivalent  to a cutoff of   9.76,  9.76,  9.76 a.u.
   NGXF,Y,Z  is equivalent  to a cutoff of  19.52, 19.52, 19.52 a.u.

 SYSTEM =  VASPcalc                                
 POSCAR =  Prussian Blue, adapted from Crystallogra

 Startparameter for this run:
   NWRITE =      2    write-flag & timer
   PREC   = normal    normal or accurate (medium, high low for compatibility)
   ISTART =      1    job   : 0-new  1-cont  2-samecut
   ICHARG =      0    charge: 1-file 2-atom 10-const
   ISPIN  =      2    spin polarized calculation?
   LNONCOLLINEAR =      F non collinear calculations
   LSORBIT =      F    spin-orbit coupling
   INIWAV =      1    electr: 0-lowe 1-rand  2-diag
   LASPH  =      T    aspherical Exc in radial PAW
   METAGGA=      F    non-selfconsistent MetaGGA calc.

 Electronic Relaxation 1
   ENCUT  =  550.0 eV  40.42 Ry    6.36 a.u.  19.55 19.55 19.55*2*pi/ulx,y,z
   ENINI  =  550.0     initial cutoff
   ENAUG  =  739.8 eV  augmentation charge cutoff
   NELM   =    300;   NELMIN=  2; NELMDL=  0     # of ELM steps 
   EDIFF  = 0.1E-03   stopping-criterion for ELM
   LREAL  =      T    real-space projection
   NLSPLINE    = F    spline interpolate recip. space projectors
   LCOMPAT=      F    compatible to vasp.4.4
   GGA_COMPAT  = T    GGA compatible to vasp.4.4-vasp.4.6
   LMAXPAW     = -100 max onsite density
   LMAXMIX     =    4 max onsite mixed and CHGCAR
   VOSKOWN=      0    Vosko Wilk Nusair interpolation
   ROPT   =   -0.00050  -0.00050  -0.00050  -0.00050
   ROPT   =   -0.00050
 Ionic relaxation
   EDIFFG = -.1E-01   stopping-criterion for IOM
   NSW    =    500    number of steps for IOM
   NBLOCK =      1;   KBLOCK =    500    inner block; outer block 
   IBRION =      1    ionic relax: 0-MD 1-quasi-New 2-CG
   NFREE  =     15    steps in history (QN), initial steepest desc. (CG)
   ISIF   =      2    stress and relaxation
   IWAVPR =     11    prediction:  0-non 1-charg 2-wave 3-comb
   ISYM   =      3    0-nonsym 1-usesym 2-fastsym
   LCORR  =      T    Harris-Foulkes like correction to forces

   POTIM  = 0.0200    time-step for ionic-motion
   TEIN   =    0.0    initial temperature
   TEBEG  =    0.0;   TEEND  =   0.0 temperature during run
   SMASS  =  -3.00    Nose mass-parameter (am)
   estimated Nose-frequenzy (Omega)   =  0.10E-29 period in steps = 0.31E+48 mass=  -0.239E-26a.u.
   SCALEE = 1.0000    scale energy and forces
   NPACO  =    256;   APACO  = 16.0  distance and # of slots for P.C.
   PSTRESS=    0.0 pullay stress

  Mass of Ions in am
   POMASS =  55.85 55.85 12.01 14.00 22.99
  Ionic Valenz
   ZVAL   =  16.00 16.00  4.00  5.00  7.00
  Atomic Wigner-Seitz radii
   RWIGS  =  -1.00 -1.00 -1.00 -1.00 -1.00
  virtual crystal weights 
   VCA    =   1.00  1.00  1.00  1.00  1.00
   NELECT =     372.0000    total number of electrons
   NUPDOWN=      20.0000    fix difference up-down

 DOS related values:
   EMIN   =  10.00;   EMAX   =-10.00  energy-range for DOS
   EFERMI =   0.00
   ISMEAR =     0;   SIGMA  =   0.02  broadening in eV -4-tet -1-fermi 0-gaus

 Electronic relaxation 2 (details)
   IALGO  =     58    algorithm
   LDIAG  =      T    sub-space diagonalisation (order eigenvalues)
   LSUBROT=      F    optimize rotation matrix (better conditioning)
   TURBO    =      0    0=normal 1=particle mesh
   IRESTART =      0    0=no restart 2=restart with 2 vectors
   NREBOOT  =      0    no. of reboots
   NMIN     =      0    reboot dimension
   EREF     =   0.00    reference energy to select bands
   IMIX   =      4    mixing-type and parameters
     AMIX     =   0.40;   BMIX     =  1.00
     AMIX_MAG =   1.60;   BMIX_MAG =  1.00
     AMIN     =   0.10
     WC   =   100.;   INIMIX=   1;  MIXPRE=   1;  MAXMIX= -45

 Intra band minimization:
   WEIMIN = 0.0010     energy-eigenvalue tresh-hold
   EBREAK =  0.10E-06  absolut break condition
   DEPER  =   0.30     relativ break condition  

   TIME   =   0.40     timestep for ELM

  volume/ion in A,a.u.               =      17.80       120.13
  Fermi-wavevector in a.u.,A,eV,Ry     =   1.151835  2.176652 18.051173  1.326724
  Thomas-Fermi vector in A             =   2.288490
 
 Write flags
   LWAVE        =      T    write WAVECAR
   LDOWNSAMPLE  =      F    k-point downsampling of WAVECAR
   LCHARG       =      F    write CHGCAR
   LVTOT        =      F    write LOCPOT, total local potential
   LVHAR        =      F    write LOCPOT, Hartree potential only
   LELF         =      F    write electronic localiz. function (ELF)
   LORBIT       =     11    0 simple, 1 ext, 2 COOP (PROOUT), +10 PAW based schemes


 Dipole corrections
   LMONO  =      F    monopole corrections only (constant potential shift)
   LDIPOL =      F    correct potential (dipole corrections)
   IDIPOL =      0    1-x, 2-y, 3-z, 4-all directions 
   EPSILON=  1.0000000 bulk dielectric constant

 Exchange correlation treatment:
   GGA     =    PE    GGA type
   LEXCH   =     8    internal setting for exchange type
   VOSKOWN=      0    Vosko Wilk Nusair interpolation
   EXXOEP  =     0    0=HF, 1=EXX-LHF (local Hartree Fock) 2=EXX OEP
   LHFCALC =     T    Hartree Fock is set to
   LSYMGRAD=     F    symmetrize gradient (conserves proper symmetry)
   PRECFOCK=normal    Normal, Fast or Accurate (Low or Medium for compatibility)
   LRHFCALC=     F    long range Hartree Fock
   LRSCOR  =     F    long range correlation only (use DFT for short range part)
   LTHOMAS =     F    Thomas Fermi screening in HF
   LMODELHF=     F    short range full HF, long range fraction AEXX
   LFOCKACE=     T    use Adeptively-Compressed-Exchange operator
   ENCUT4O =  -1.0   cutoff for four orbital integrals eV
   LMAXFOCK=     4    L truncation for augmentation on plane wave grid
   LMAXFOCKAE=  -1    L truncation for all-electron charge restoration on plane wave grid
   NMAXFOCKAE=   1    number of basis functions for all-electron charge restoration
   LFOCKAEDFT=     F  apply the AE augmentation even for DFT
   NKREDX  =     1    reduce k-point grid by
   NKREDY  =     1    reduce k-point grid by
   NKREDZ  =     1    reduce k-point grid by
   SHIFTRED=     F    shift reduced grid of Gamma
   HFKIDENT=     F    idential grid for each k-point
   ODDONLY =     F    use only odd q-grid points
   EVENONLY=     F    use only even q-grid points
   HFALPHA =   -1.0000 decay constant for conv. correction
   MCALPHA =    0.0000 extent of test-charge in conv. correction in multipole expansion
   AEXX    =    0.2500 exact exchange contribution
   HFSCREEN=    0.2000 screening length (either q_TF or 0.3 A-1)
   HFSCREENC=   0.2000 screening length for correlation (either q_TF or 0.3 A-1)
   HFRCUT  =    0.0000 spherical cutoff for potential kernel
   ALDAX   =    0.7500 LDA exchange part
   AGGAX   =    0.7500 GGA exchange part
   ALDAC   =    1.0000 LDA correlation
   AGGAC   =    1.0000 GGA correlation
   ENCUTFOCK=  -1.0 apply spherical cutoff to Coloumb kernel
   NBANDSGWLOW=     1    first orbital included in HF term
   NBLOCK_FOCK=    64    blocking factor in FOCK_ACC
 Linear response parameters
   LEPSILON=     F    determine dielectric tensor
   LRPA    =     F    only Hartree local field effects (RPA)
   LNABLA  =     F    use nabla operator in PAW spheres
   LVEL    =     F    velocity operator in full k-point grid
   LINTERFAST=   F  fast interpolation
   KINTER  =     0    interpolate to denser k-point grid
   CSHIFT  =0.1000    complex shift for real part using Kramers Kronig
   OMEGAMAX=  -1.0    maximum frequency
   DEG_THRESHOLD= 0.2000000E-02 threshold for treating states as degnerate
   RTIME   =   -0.100 relaxation time in fs
  (WPLASMAI=    0.000 imaginary part of plasma frequency in eV, 0.658/RTIME)
   DFIELD  = 0.0000000 0.0000000 0.0000000 field for delta impulse in time
 
 Orbital magnetization related:
   ORBITALMAG=     F  switch on orbital magnetization
   LCHIMAG   =     F  perturbation theory with respect to B field
   DQ        =  0.001000  dq finite difference perturbation B field
   LLRAUG    =     F  two centre corrections for induced B field



--------------------------------------------------------------------------------------------------------


 quasi-Newton-method for relaxation of ions
 charge density and potential will be updated during run
 spin polarized calculation
 Conjugate gradient for all bands (Freysoldt, et al. PRB 79, 241103 (2009))
 preconditioned conjugated gradient                                        
 perform sub-space diagonalisation
    before iterative eigenvector-optimisation
 modified Broyden-mixing scheme, WC =      100.0
 initial mixing is a Kerker type mixing with AMIX =  0.4000 and BMIX =      1.0000
 Hartree-type preconditioning will be used
 using additional bands           54
 real space projection scheme for non local part
 use partial core corrections
 no Harris-corrections to forces 
 use gradient corrections 
 use of overlap-Matrix (Vanderbilt PP)
 Gauss-broadening in eV      SIGMA  =   0.02


--------------------------------------------------------------------------------------------------------


  energy-cutoff  :      550.00
  volume of cell :     1068.06
      direct lattice vectors                 reciprocal lattice vectors
    10.221913934  0.000000000  0.000000000     0.097829037  0.000000000  0.000000000
     0.000000000 10.221913934  0.000000000     0.000000000  0.097829037  0.000000000
     0.000000000  0.000000000 10.221913934     0.000000000  0.000000000  0.097829037

  length of vectors
    10.221913934 10.221913934 10.221913934     0.097829037  0.097829037  0.097829037


 
 old parameters found on file WAVECAR:
  energy-cutoff  :      450.00
  volume of cell :     1068.06
      direct lattice vectors                 reciprocal lattice vectors
    10.221913934  0.000000000  0.000000000     0.097829037  0.000000000  0.000000000
     0.000000000 10.221913934  0.000000000     0.000000000  0.097829037  0.000000000
     0.000000000  0.000000000 10.221913934     0.000000000  0.000000000  0.097829037

  length of vectors

 
 k-points in units of 2pi/SCALE and weight: Automatic mesh                          
   0.00000000  0.00000000  0.00000000       1.000
 
 k-points in reciprocal lattice and weights: Automatic mesh                          
   0.00000000  0.00000000  0.00000000       1.000
 
 position of ions in fractional coordinates (direct lattice) 
   0.00000000  0.00402531  0.49597469
   0.50000000  0.99594360  0.99594360
   0.00000000  0.49597469  0.00402531
   0.50000000  0.50405640  0.50405640
   0.00000000  0.00096908  0.00096908
   0.00000000  0.49903092  0.49903092
   0.50000000  0.00018161  0.49981839
   0.50000000  0.49981839  0.00018161
   0.00000000  0.00075754  0.18497161
   0.00000000  0.00254078  0.81634027
   0.18557709  0.00095535  0.00095535
   0.81442288  0.00095535  0.00095535
   0.00000000  0.18497161  0.00075754
   0.00000000  0.81634027  0.00254078
   0.00000000  0.49745922  0.68365973
   0.00000000  0.49924246  0.31502839
   0.18557709  0.49904465  0.49904465
   0.81442288  0.49904465  0.49904465
   0.00000000  0.68365973  0.49745922
   0.00000000  0.31502839  0.49924246
   0.50000000  0.99854488  0.68224239
   0.50000000  0.00032971  0.31773738
   0.68518584  0.99997768  0.50002232
   0.31481419  0.99997768  0.50002232
   0.50000000  0.18226262  0.49967029
   0.50000000  0.81775761  0.50145512
   0.50000000  0.49967029  0.18226262
   0.50000000  0.50145512  0.81775761
   0.68518584  0.50002232  0.99997768
   0.31481419  0.50002232  0.99997768
   0.50000000  0.68224239  0.99854488
   0.50000000  0.31773738  0.00032971
   0.00000000  0.99982211  0.29878590
   0.00000000  0.99626664  0.70229880
   0.30006184  0.99981689  0.99981689
   0.69993819  0.99981689  0.99981689
   0.00000000  0.29878590  0.99982211
   0.00000000  0.70229880  0.99626664
   0.00000000  0.50373336  0.79770120
   0.00000000  0.50017789  0.20121410
   0.30006184  0.50018311  0.50018311
   0.69993819  0.50018311  0.50018311
   0.00000000  0.79770120  0.50373336
   0.00000000  0.20121410  0.50017789
   0.50000000  0.00507485  0.79614324
   0.50000000  0.00102495  0.20332006
   0.79864958  0.00043354  0.49956646
   0.20135039  0.00043354  0.49956646
   0.50000000  0.29667994  0.49897505
   0.50000000  0.70385676  0.49492515
   0.50000000  0.49897505  0.29667994
   0.50000000  0.49492515  0.70385676
   0.79864958  0.49956646  0.00043354
   0.20135039  0.49956646  0.00043354
   0.50000000  0.79614324  0.00507485
   0.50000000  0.20332006  0.00102495
   0.50000000  0.25000000  0.25000000
   0.50000000  0.75000000  0.25000000
   0.00000000  0.75000000  0.75000000
   0.50000000  0.25000000  0.75000000
 
 position of ions in cartesian coordinates  (Angst):
   0.00000000  0.04114636  5.06981061
   5.11095697 10.18044981 10.18044981
   0.00000000  5.06981061  0.04114636
   5.11095697  5.15242109  5.15242109
   0.00000000  0.00990588  0.00990588
   0.00000000  5.10105108  5.10105108
   5.11095697  0.00185645  5.10910052
   5.11095697  5.10910052  0.00185645
   0.00000000  0.00774347  1.89076391
   0.00000000  0.02597165  8.34456001
   1.89695308  0.00976549  0.00976549
   8.32496055  0.00976549  0.00976549
   0.00000000  1.89076391  0.00774347
   0.00000000  8.34456001  0.02597165
   0.00000000  5.08498532  6.98831089
   0.00000000  5.10321350  3.22019306
   1.89695308  5.10119148  5.10119148
   8.32496055  5.10119148  5.10119148
   0.00000000  6.98831089  5.08498532
   0.00000000  3.22019306  5.10321350
   5.11095697 10.20703978  6.97382304
   5.11095697  0.00337022  3.24788420
   7.00391066 10.22168581  5.11118509
   3.21800357 10.22168581  5.11118509
   5.11095697  1.86307277  5.10758675
   5.11095697  8.35904786  5.12583112
   5.11095697  5.10758675  1.86307277
   5.11095697  5.12583112  8.35904786
   7.00391066  5.11118509 10.22168581
   3.21800357  5.11118509 10.22168581
   5.11095697  6.97382304 10.20703978
   5.11095697  3.24788420  0.00337022
   0.00000000 10.22009551  3.05416370
   0.00000000 10.18375182  7.17883787
   3.06720628 10.22004224 10.22004224
   7.15470795 10.22004224 10.22004224
   0.00000000  3.05416370 10.22009551
   0.00000000  7.17883787 10.18375182
   0.00000000  5.14911908  8.15403303
   0.00000000  5.11277539  2.05679326
   3.06720628  5.11282866  5.11282866
   7.15470795  5.11282866  5.11282866
   0.00000000  8.15403303  5.14911908
   0.00000000  2.05679326  5.11277539
   5.11095697  0.05187472  8.13810770
   5.11095697  0.01047694  2.07832019
   8.16372726  0.00443161  5.10652536
   2.05818638  0.00443161  5.10652536
   5.11095697  3.03263678  5.10048003
   5.11095697  7.19476320  5.05908225
   5.11095697  5.10048003  3.03263678
   5.11095697  5.05908225  7.19476320
   8.16372726  5.10652536  0.00443161
   2.05818638  5.10652536  0.00443161
   5.11095697  8.13810770  0.05187472
   5.11095697  2.07832019  0.01047694
   5.11095697  2.55547848  2.55547848
   5.11095697  7.66643545  2.55547848
   0.00000000  7.66643545  7.66643545
   5.11095697  2.55547848  7.66643545
 


--------------------------------------------------------------------------------------------------------


 k-point   1 :   0.0000 0.0000 0.0000  plane waves:   31439

 maximum and minimum number of plane-waves per node :     31439    31439

 maximum number of plane-waves:     31439
 maximum index in each direction: 
   IXMAX=   19   IYMAX=   19   IZMAX=   19
   IXMIN=  -19   IYMIN=  -19   IZMIN=  -19


 serial   3D FFT for wavefunctions
 parallel 3D FFT for charge:
    minimum data exchange during FFTs selected (reduces bandwidth)

 
 Radii for the augmentation spheres in the non-local exchange
 for species   1 augmentation radius   1.050 (default was   0.840)
       energy cutoff for augmentation   2200.0
 for species   2 augmentation radius   1.050 (default was   0.840)
       energy cutoff for augmentation   2200.0
 for species   3 augmentation radius   0.874 (default was   0.699)
       energy cutoff for augmentation   2200.0
 for species   4 augmentation radius   0.886 (default was   0.709)
       energy cutoff for augmentation   2200.0
 for species   5 augmentation radius   1.157 (default was   0.925)
       energy cutoff for augmentation   2200.0
 Maximum index for augmentation-charges in exchange         1357
  SETUP_FOCK is finished

 total amount of memory used by VASP MPI-rank0    89254. kBytes
=======================================================================

   base      :      30000. kBytes
   nonlr-proj:      14034. kBytes
   fftplans  :       2376. kBytes
   grid      :      21951. kBytes
   one-center:       2079. kBytes
   HF        :        361. kBytes
   wavefun   :      18453. kBytes
 
     INWAV:  cpu time    0.3361: real time    0.3382
 Broyden mixing: mesh for mixing (old mesh)
   NGX = 39   NGY = 39   NGZ = 39
  (NGX  =120   NGY  =120   NGZ  =120)
  gives a total of  59319 points

 charge density for first step will be calculated from the start-wavefunctions


--------------------------------------------------------------------------------------------------------


 Maximum index for non-local projection operator         1608
 Maximum index for augmentation-charges          373 (set IRDMAX)


--------------------------------------------------------------------------------------------------------


 initial charge from wavefunction
 First call to EWALD:  gamma=   0.173
 Maximum number of real-space cells 3x 3x 3
 Maximum number of reciprocal cells 3x 3x 3

    FEWALD:  cpu time    0.0013: real time    0.0013


--------------------------------------- Iteration      1(   1)  ---------------------------------------


    POTLOK:  cpu time    0.1108: real time    0.1139
    SETDIJ:  cpu time    1.2347: real time    1.2402
    TRIAL :  cpu time   35.6139: real time   35.8764
    CORREC:  cpu time   35.6678: real time   35.9266
    CHARGE:  cpu time    0.0563: real time    0.0569
    --------------------------------------------
      LOOP:  cpu time   72.6897: real time   73.2204

 eigenvalue-minimisations  :     0
 total energy-change (2. order) :-0.5930483E+03  (-0.7859728E+00)
 number of electron     371.9999818 magnetization      20.0000081
 augmentation part       83.3675471 magnetization      12.2175321

 Free energy of the ion-electron system (eV)
  ---------------------------------------------------
  alpha Z        PSCENC =       612.05321401
  Ewald energy   TEWEN  =    -13165.71662090
  -Hartree energ DENC   =    -22329.69037309
  -exchange      EXHF   =      1131.00427508
  -V(xc)+E(xc)   XCENC  =      1347.32205974
  PAW double counting   =     52771.47079909   -53442.84223800
  entropy T*S    EENTRO =        -0.00000000
  eigenvalues    EBANDS =     -7321.52960573
  atomic energy  EATOM  =     39804.88022130
  ---------------------------------------------------
  free energy    TOTEN  =      -593.04826850 eV

  energy without entropy =     -593.04826850  energy(sigma->0) =     -593.04826850
  exchange ACFDT corr.  =         0.00000000  see jH, gK, PRB 81, 115126


--------------------------------------------------------------------------------------------------------




--------------------------------------- Iteration      1(   2)  ---------------------------------------


    POTLOK:  cpu time    0.1023: real time    0.1028
    SETDIJ:  cpu time    1.2318: real time    1.2371
    TRIAL :  cpu time   34.8039: real time   35.0870
    CORREC:  cpu time   37.4143: real time   37.6738
    CHARGE:  cpu time    0.0555: real time    0.0561
    --------------------------------------------
      LOOP:  cpu time   73.6081: real time   74.1571

 eigenvalue-minimisations  :     0
 total energy-change (2. order) :-0.7860821E+00  (-0.9281580E-01)
 number of electron     371.9999817 magnetization      20.0000081
 augmentation part       83.5733351 magnetization      12.2258561

 Free energy of the ion-electron system (eV)
  ---------------------------------------------------
  alpha Z        PSCENC =       612.05321401
  Ewald energy   TEWEN  =    -13165.71662090
  -Hartree energ DENC   =    -22302.13304996
  -exchange      EXHF   =      1130.82083058
  -V(xc)+E(xc)   XCENC  =      1346.53489952
  PAW double counting   =     52732.86958663   -53398.43690741
  entropy T*S    EENTRO =        -0.00000000
  eigenvalues    EBANDS =     -7354.70652438
  atomic energy  EATOM  =     39804.88022130
  ---------------------------------------------------
  free energy    TOTEN  =      -593.83435062 eV

  energy without entropy =     -593.83435062  energy(sigma->0) =     -593.83435062
  exchange ACFDT corr.  =         0.00000000  see jH, gK, PRB 81, 115126


--------------------------------------------------------------------------------------------------------




--------------------------------------- Iteration      1(   3)  ---------------------------------------


    POTLOK:  cpu time    0.1022: real time    0.1028
    SETDIJ:  cpu time    1.2324: real time    1.2377
    TRIAL :  cpu time   35.1669: real time   35.4187
    CORREC:  cpu time   35.6704: real time   35.9270
    CHARGE:  cpu time    0.0555: real time    0.0561
    --------------------------------------------
      LOOP:  cpu time   72.2275: real time   72.7426

 eigenvalue-minimisations  :     0
 total energy-change (2. order) :-0.9291077E-01  (-0.9086372E-02)
 number of electron     371.9999817 magnetization      20.0000081
 augmentation part       83.5757666 magnetization      12.2271651

 Free energy of the ion-electron system (eV)
  ---------------------------------------------------
  alpha Z        PSCENC =       612.05321401
  Ewald energy   TEWEN  =    -13165.71662090
  -Hartree energ DENC   =    -22335.23485319
  -exchange      EXHF   =      1131.30197434
  -V(xc)+E(xc)   XCENC  =      1347.37721728
  PAW double counting   =     52808.64184809   -53477.86055358
  entropy T*S    EENTRO =        -0.00000000
  eigenvalues    EBANDS =     -7319.36970873
  atomic energy  EATOM  =     39804.88022130
  ---------------------------------------------------
  free energy    TOTEN  =      -593.92726139 eV

  energy without entropy =     -593.92726139  energy(sigma->0) =     -593.92726139
  exchange ACFDT corr.  =         0.00000000  see jH, gK, PRB 81, 115126


--------------------------------------------------------------------------------------------------------




--------------------------------------- Iteration      1(   4)  ---------------------------------------


    POTLOK:  cpu time    0.1019: real time    0.1025
    SETDIJ:  cpu time    1.2322: real time    1.2379
    TRIAL :  cpu time   35.6649: real time   35.9531
    CORREC:  cpu time   36.8669: real time   37.1359
    CHARGE:  cpu time    0.0556: real time    0.0562
    --------------------------------------------
      LOOP:  cpu time   73.9219: real time   74.4858

 eigenvalue-minimisations  :     0
 total energy-change (2. order) :-0.9084542E-02  (-0.4270355E-02)
 number of electron     371.9999817 magnetization      20.0000081
 augmentation part       83.5758415 magnetization      12.2270185

 Free energy of the ion-electron system (eV)
  ---------------------------------------------------
  alpha Z        PSCENC =       612.05321401
  Ewald energy   TEWEN  =    -13165.71662090
  -Hartree energ DENC   =    -22333.15486512
  -exchange      EXHF   =      1131.28543365
  -V(xc)+E(xc)   XCENC  =      1347.37693473
  PAW double counting   =     52771.95996151   -53441.29112044
  entropy T*S    EENTRO =        -0.00000000
  eigenvalues    EBANDS =     -7321.32950466
  atomic energy  EATOM  =     39804.88022130
  ---------------------------------------------------
  free energy    TOTEN  =      -593.93634593 eV

  energy without entropy =     -593.93634593  energy(sigma->0) =     -593.93634593
  exchange ACFDT corr.  =         0.00000000  see jH, gK, PRB 81, 115126


--------------------------------------------------------------------------------------------------------




--------------------------------------- Iteration      1(   5)  ---------------------------------------


    POTLOK:  cpu time    0.1019: real time    0.1024
    SETDIJ:  cpu time    1.2322: real time    1.2372
    TRIAL :  cpu time   34.6945: real time   34.9505
    CORREC:  cpu time   36.1885: real time   36.4574
    CHARGE:  cpu time    0.0558: real time    0.0564
    --------------------------------------------
      LOOP:  cpu time   72.2733: real time   72.8042

 eigenvalue-minimisations  :     0
 total energy-change (2. order) :-0.4265084E-02  (-0.1800490E-02)
 number of electron     371.9999817 magnetization      20.0000081
 augmentation part       83.5832996 magnetization      12.2265734

 Free energy of the ion-electron system (eV)
  ---------------------------------------------------
  alpha Z        PSCENC =       612.05321401
  Ewald energy   TEWEN  =    -13165.71662090
  -Hartree energ DENC   =    -22331.38160429
  -exchange      EXHF   =      1131.27787000
  -V(xc)+E(xc)   XCENC  =      1347.37178573
  PAW double counting   =     52730.47608426   -53399.80915258
  entropy T*S    EENTRO =        -0.00000000
  eigenvalues    EBANDS =     -7323.09240855
  atomic energy  EATOM  =     39804.88022130
  ---------------------------------------------------
  free energy    TOTEN  =      -593.94061101 eV

  energy without entropy =     -593.94061101  energy(sigma->0) =     -593.94061101
  exchange ACFDT corr.  =         0.00000000  see jH, gK, PRB 81, 115126


--------------------------------------------------------------------------------------------------------




--------------------------------------- Iteration      1(   6)  ---------------------------------------


    POTLOK:  cpu time    0.1018: real time    0.1024
    SETDIJ:  cpu time    1.2339: real time    1.2390
    TRIAL :  cpu time   35.3007: real time   35.5726
    CORREC:  cpu time   35.3540: real time   35.6637
    CHARGE:  cpu time    0.0562: real time    0.0568
    --------------------------------------------
      LOOP:  cpu time   72.0468: real time   72.6348

 eigenvalue-minimisations  :     0
 total energy-change (2. order) :-0.1798463E-02  (-0.9742797E-03)
 number of electron     371.9999817 magnetization      20.0000081
 augmentation part       83.5906381 magnetization      12.2265432

 Free energy of the ion-electron system (eV)
  ---------------------------------------------------
  alpha Z        PSCENC =       612.05321401
  Ewald energy   TEWEN  =    -13165.71662090
  -Hartree energ DENC   =    -22331.69463375
  -exchange      EXHF   =      1131.29221803
  -V(xc)+E(xc)   XCENC  =      1347.39642963
  PAW double counting   =     52699.57217383   -53368.98541317
  entropy T*S    EENTRO =        -0.00000000
  eigenvalues    EBANDS =     -7322.73999846
  atomic energy  EATOM  =     39804.88022130
  ---------------------------------------------------
  free energy    TOTEN  =      -593.94240948 eV

  energy without entropy =     -593.94240948  energy(sigma->0) =     -593.94240948
  exchange ACFDT corr.  =         0.00000000  see jH, gK, PRB 81, 115126


--------------------------------------------------------------------------------------------------------




--------------------------------------- Iteration      1(   7)  ---------------------------------------


    POTLOK:  cpu time    0.1016: real time    0.1022
    SETDIJ:  cpu time    1.2317: real time    1.2374
    TRIAL :  cpu time   35.6018: real time   35.8491
    CORREC:  cpu time   36.1916: real time   36.4687
    CHARGE:  cpu time    0.0556: real time    0.0561
    --------------------------------------------
      LOOP:  cpu time   73.1826: real time   73.7139

 eigenvalue-minimisations  :     0
 total energy-change (2. order) :-0.9728042E-03  (-0.3773474E-03)
 number of electron     371.9999818 magnetization      20.0000081
 augmentation part       83.5912281 magnetization      12.2270103

 Free energy of the ion-electron system (eV)
  ---------------------------------------------------
  alpha Z        PSCENC =       612.05321401
  Ewald energy   TEWEN  =    -13165.71662090
  -Hartree energ DENC   =    -22332.06883599
  -exchange      EXHF   =      1131.29525362
  -V(xc)+E(xc)   XCENC  =      1347.41091777
  PAW double counting   =     52678.31326858   -53347.79831343
  entropy T*S    EENTRO =        -0.00000000
  eigenvalues    EBANDS =     -7322.31248724
  atomic energy  EATOM  =     39804.88022130
  ---------------------------------------------------
  free energy    TOTEN  =      -593.94338228 eV

  energy without entropy =     -593.94338228  energy(sigma->0) =     -593.94338228
  exchange ACFDT corr.  =         0.00000000  see jH, gK, PRB 81, 115126


--------------------------------------------------------------------------------------------------------




--------------------------------------- Iteration      1(   8)  ---------------------------------------


    POTLOK:  cpu time    0.1017: real time    0.1022
    SETDIJ:  cpu time    1.2324: real time    1.2377
    TRIAL :  cpu time   35.6053: real time   35.8785
    CORREC:  cpu time   36.3555: real time   36.6442
    CHARGE:  cpu time    0.0558: real time    0.0564
    --------------------------------------------
      LOOP:  cpu time   73.3510: real time   73.9193

 eigenvalue-minimisations  :     0
 total energy-change (2. order) :-0.3755040E-03  (-0.1289319E-03)
 number of electron     371.9999818 magnetization      20.0000081
 augmentation part       83.5902715 magnetization      12.2273993

 Free energy of the ion-electron system (eV)
  ---------------------------------------------------
  alpha Z        PSCENC =       612.05321401
  Ewald energy   TEWEN  =    -13165.71662090
  -Hartree energ DENC   =    -22331.68849841
  -exchange      EXHF   =      1131.28076438
  -V(xc)+E(xc)   XCENC  =      1347.39879584
  PAW double counting   =     52668.70741665   -53338.17304493
  entropy T*S    EENTRO =        -0.00000000
  eigenvalues    EBANDS =     -7322.68600572
  atomic energy  EATOM  =     39804.88022130
  ---------------------------------------------------
  free energy    TOTEN  =      -593.94375779 eV

  energy without entropy =     -593.94375779  energy(sigma->0) =     -593.94375779
  exchange ACFDT corr.  =         0.00000000  see jH, gK, PRB 81, 115126


--------------------------------------------------------------------------------------------------------




--------------------------------------- Iteration      1(   9)  ---------------------------------------


    POTLOK:  cpu time    0.1022: real time    0.1028
    SETDIJ:  cpu time    1.2318: real time    1.2373
    TRIAL :  cpu time   35.8510: real time   36.1304
    CORREC:  cpu time   36.3794: real time   36.6321
    CHARGE:  cpu time    0.0557: real time    0.0563
    --------------------------------------------
      LOOP:  cpu time   73.6205: real time   74.1593

 eigenvalue-minimisations  :     0
 total energy-change (2. order) :-0.1274247E-03  (-0.5924629E-04)
 number of electron     371.9999818 magnetization      20.0000081
 augmentation part       83.5902895 magnetization      12.2275911

 Free energy of the ion-electron system (eV)
  ---------------------------------------------------
  alpha Z        PSCENC =       612.05321401
  Ewald energy   TEWEN  =    -13165.71662090
  -Hartree energ DENC   =    -22331.45544589
  -exchange      EXHF   =      1131.27002147
  -V(xc)+E(xc)   XCENC  =      1347.38818739
  PAW double counting   =     52665.43863725   -53334.87857430
  entropy T*S    EENTRO =        -0.00000000
  eigenvalues    EBANDS =     -7322.92352554
  atomic energy  EATOM  =     39804.88022130
  ---------------------------------------------------
  free energy    TOTEN  =      -593.94388521 eV

  energy without entropy =     -593.94388521  energy(sigma->0) =     -593.94388521
  exchange ACFDT corr.  =         0.00000000  see jH, gK, PRB 81, 115126


--------------------------------------------------------------------------------------------------------




--------------------------------------- Iteration      1(  10)  ---------------------------------------


    POTLOK:  cpu time    0.1017: real time    0.1022
    SETDIJ:  cpu time    1.2323: real time    1.2374
    TRIAL :  cpu time   34.8092: real time   35.0502
    CORREC:  cpu time   36.9598: real time   37.2224
    EDDIAG:  cpu time   34.9046: real time   35.1555
    CHARGE:  cpu time    0.0564: real time    0.0571
    --------------------------------------------
      LOOP:  cpu time  108.0643: real time  108.8252

 eigenvalue-minimisations  :     0
 total energy-change (2. order) :-0.5923022E-04  (-0.3513303E-04)
 number of electron     371.9999818 magnetization      20.0000081
 augmentation part       83.5907871 magnetization      12.2276267

 Free energy of the ion-electron system (eV)
  ---------------------------------------------------
  alpha Z        PSCENC =       612.05321401
  Ewald energy   TEWEN  =    -13165.71662090
  -Hartree energ DENC   =    -22331.50482022
  -exchange      EXHF   =      1131.26659786
  -V(xc)+E(xc)   XCENC  =      1347.38549551
  PAW double counting   =     52665.42749351   -53334.86867115
  entropy T*S    EENTRO =        -0.00000000
  eigenvalues    EBANDS =     -7322.86643054
  atomic energy  EATOM  =     39804.88022130
  ---------------------------------------------------
  free energy    TOTEN  =      -593.94394444 eV

  energy without entropy =     -593.94394444  energy(sigma->0) =     -593.94394444
  exchange ACFDT corr.  =         0.00000000  see jH, gK, PRB 81, 115126


--------------------------------------------------------------------------------------------------------


  average scaling for gradient   0.8368


 average (electrostatic) potential at core
  the test charge radii are     0.8400  0.8400  0.6991  0.7089  0.9254
  (the norm of the test charge is              1.0000)
       1-143.9445       2-144.4964       3-143.9444       4-144.4964       5-140.2550
       6-140.2552       7-140.8178       8-140.8178       9 -50.4715      10 -50.7839
      11 -50.8376      12 -50.8376      13 -50.4716      14 -50.7840      15 -50.7839
      16 -50.4716      17 -50.8376      18 -50.8375      19 -50.7840      20 -50.4716
      21 -51.5649      22 -51.8526      23 -50.7721      24 -50.7721      25 -51.8527
      26 -51.5650      27 -51.8526      28 -51.5649      29 -50.7721      30 -50.7721
      31 -51.5650      32 -51.8527      33 -62.8651      34 -63.2144      35 -63.2504
      36 -63.2504      37 -62.8652      38 -63.2144      39 -63.2144      40 -62.8651
      41 -63.2503      42 -63.2503      43 -63.2144      44 -62.8651      45 -63.9555
      46 -64.3066      47 -63.2043      48 -63.2043      49 -64.3066      50 -63.9555
      51 -64.3066      52 -63.9555      53 -63.2044      54 -63.2044      55 -63.9555
      56 -64.3066      57 -43.8288      58 -43.6536      59 -42.8475      60 -43.6536
 
 
 
 E-fermi :  -0.7903     XC(G=0):  -6.1473     alpha+bet : -6.5433

 Fermi energy:        -1.4686612107

 spin component 1

 k-point     1 :       0.0000    0.0000    0.0000
  band No.  band energies     occupation 
      1     -99.4808      1.00000
      2     -99.4808      1.00000
      3     -98.9494      1.00000
      4     -98.9492      1.00000
      5     -92.7661      1.00000
      6     -92.7660      1.00000
      7     -92.3209      1.00000
      8     -92.3206      1.00000
      9     -64.1045      1.00000
     10     -64.1044      1.00000
     11     -64.1044      1.00000
     12     -64.1043      1.00000
     13     -63.9376      1.00000
     14     -63.9376      1.00000
     15     -63.5204      1.00000
     16     -63.5202      1.00000
     17     -63.5114      1.00000
     18     -63.5113      1.00000
     19     -63.5025      1.00000
     20     -63.5023      1.00000
     21     -57.2908      1.00000
     22     -57.2907      1.00000
     23     -57.2813      1.00000
     24     -57.2812      1.00000
     25     -57.0786      1.00000
     26     -57.0785      1.00000
     27     -56.8256      1.00000
     28     -56.8254      1.00000
     29     -56.7404      1.00000
     30     -56.7402      1.00000
     31     -56.7313      1.00000
     32     -56.7310      1.00000
     33     -27.3239      1.00000
     34     -27.3144      1.00000
     35     -27.2847      1.00000
     36     -27.1486      1.00000
     37     -27.1485      1.00000
     38     -27.1430      1.00000
     39     -27.1430      1.00000
     40     -27.1082      1.00000
     41     -27.1081      1.00000
     42     -26.3524      1.00000
     43     -26.3350      1.00000
     44     -26.2982      1.00000
     45     -21.3602      1.00000
     46     -21.2507      1.00000
     47     -21.2266      1.00000
     48     -21.2019      1.00000
     49     -20.9046      1.00000
     50     -20.8558      1.00000
[...]
     0.000000000 10.221913934  0.000000000     0.000000000  0.097829037  0.000000000
     0.000000000  0.000000000 10.221913934     0.000000000  0.000000000  0.097829037

  length of vectors
    10.221913934 10.221913934 10.221913934     0.097829037  0.097829037  0.097829037


 FORCES acting on ions:
    Electron-Ion                     Ewald-Force                    Non-Local-Force
 -----------------------------------------------------------------------------------------------
   0.519E-04 -.362E+02 0.362E+02   -.567E-04 0.381E+02 -.381E+02   -.452E-22 -.191E+01 0.191E+01
   -.161E-05 0.540E+02 0.540E+02   0.583E-04 -.554E+02 -.554E+02   -.279E-21 0.139E+01 0.139E+01
   0.647E-04 0.362E+02 -.362E+02   -.567E-04 -.381E+02 0.381E+02   0.185E-22 0.191E+01 -.191E+01
   -.565E-04 -.540E+02 -.540E+02   0.583E-04 0.554E+02 0.554E+02   0.369E-21 -.139E+01 -.139E+01
   0.205E-03 -.463E+02 -.463E+02   -.509E-04 0.468E+02 0.468E+02   0.496E-21 -.452E+00 -.452E+00
   0.223E-03 0.463E+02 0.463E+02   -.509E-04 -.468E+02 -.468E+02   -.721E-21 0.452E+00 0.452E+00
   -.642E-04 0.546E+02 -.546E+02   0.510E-04 -.553E+02 0.553E+02   -.597E-23 0.642E+00 -.642E+00
   -.546E-04 -.546E+02 0.546E+02   0.510E-04 0.553E+02 -.553E+02   0.551E-23 -.642E+00 0.642E+00
   -.481E-04 -.275E+01 -.510E+02   0.180E-05 0.294E+01 0.369E+02   -.754E-21 -.176E+00 0.133E+02
   0.122E-04 -.540E+02 0.422E+02   0.187E-05 0.554E+02 -.277E+02   0.123E-21 -.131E+01 -.137E+02
   -.361E+02 -.632E+01 -.632E+01   0.213E+02 0.645E+01 0.645E+01   0.139E+02 -.120E+00 -.120E+00
   0.361E+02 -.632E+01 -.632E+01   -.213E+02 0.645E+01 0.645E+01   -.139E+02 -.120E+00 -.120E+00
   0.626E-04 -.510E+02 -.275E+01   0.180E-05 0.369E+02 0.294E+01   -.542E-21 0.133E+02 -.176E+00
   -.210E-04 0.422E+02 -.540E+02   0.187E-05 -.277E+02 0.554E+02   0.707E-22 -.137E+02 -.131E+01
   -.792E-05 0.540E+02 -.422E+02   0.187E-05 -.554E+02 0.277E+02   -.849E-22 0.131E+01 0.137E+02
   -.178E-04 0.275E+01 0.510E+02   0.180E-05 -.294E+01 -.369E+02   -.695E-23 0.176E+00 -.133E+02
   -.361E+02 0.632E+01 0.632E+01   0.213E+02 -.645E+01 -.645E+01   0.139E+02 0.120E+00 0.120E+00
   0.361E+02 0.632E+01 0.632E+01   -.213E+02 -.645E+01 -.645E+01   -.139E+02 0.120E+00 0.120E+00
   -.238E-05 -.422E+02 0.540E+02   0.187E-05 0.277E+02 -.554E+02   -.734E-22 0.137E+02 0.131E+01
   0.301E-05 0.510E+02 0.275E+01   0.180E-05 -.369E+02 -.294E+01   0.376E-21 -.133E+02 0.176E+00
   -.889E-06 0.562E+02 -.549E+02   -.180E-05 -.576E+02 0.403E+02   0.137E-23 0.134E+01 0.138E+02
   -.606E-07 0.402E+01 0.452E+02   -.184E-05 -.420E+01 -.301E+02   -.606E-22 0.171E+00 -.142E+02
   -.683E+02 0.698E+01 -.698E+01   0.549E+02 -.704E+01 0.704E+01   0.126E+02 0.560E-01 -.560E-01
   0.683E+02 0.698E+01 -.698E+01   -.549E+02 -.704E+01 0.704E+01   -.126E+02 0.560E-01 -.560E-01
   0.511E-06 -.452E+02 -.402E+01   -.184E-05 0.301E+02 0.420E+01   -.131E-23 0.142E+02 -.171E+00
   0.436E-05 0.549E+02 -.562E+02   -.180E-05 -.403E+02 0.576E+02   0.220E-23 -.138E+02 -.134E+01
   -.160E-05 -.402E+01 -.452E+02   -.184E-05 0.420E+01 0.301E+02   0.373E-22 -.171E+00 0.142E+02
   0.202E-05 -.562E+02 0.549E+02   -.180E-05 0.576E+02 -.403E+02   -.239E-23 -.134E+01 -.138E+02
   -.683E+02 -.698E+01 0.698E+01   0.549E+02 0.704E+01 -.704E+01   0.126E+02 -.560E-01 0.560E-01
   0.683E+02 -.698E+01 0.698E+01   -.549E+02 0.704E+01 -.704E+01   -.126E+02 -.560E-01 0.560E-01
   0.209E-05 -.549E+02 0.562E+02   -.180E-05 0.403E+02 -.576E+02   -.278E-23 0.138E+02 0.134E+01
   0.175E-05 0.452E+02 0.402E+01   -.184E-05 -.301E+02 -.420E+01   -.322E-23 -.142E+02 0.171E+00
   -.182E-04 0.481E+01 0.417E+02   0.166E-05 -.510E+01 -.152E+02   0.201E-21 0.270E+00 -.242E+02
   -.228E-04 -.422E+02 -.582E+01   0.175E-05 0.419E+02 -.223E+02   -.208E-21 0.268E+00 0.257E+02
   0.606E+02 0.364E+01 0.364E+01   -.348E+02 -.398E+01 -.398E+01   -.236E+02 0.314E+00 0.314E+00
   -.606E+02 0.364E+01 0.364E+01   0.348E+02 -.398E+01 -.398E+01   0.236E+02 0.314E+00 0.314E+00
   0.108E-04 0.417E+02 0.481E+01   0.166E-05 -.152E+02 -.510E+01   0.199E-21 -.242E+02 0.270E+00
   -.179E-05 -.582E+01 -.422E+02   0.175E-05 -.223E+02 0.419E+02   -.193E-22 0.257E+02 0.268E+00
   -.129E-04 0.422E+02 0.582E+01   0.175E-05 -.419E+02 0.223E+02   0.471E-22 -.268E+00 -.257E+02
   -.430E-04 -.481E+01 -.417E+02   0.166E-05 0.510E+01 0.152E+02   0.574E-21 -.270E+00 0.242E+02
   0.606E+02 -.364E+01 -.364E+01   -.348E+02 0.398E+01 0.398E+01   -.236E+02 -.314E+00 -.314E+00
   -.606E+02 -.364E+01 -.364E+01   0.348E+02 0.398E+01 0.398E+01   0.236E+02 -.314E+00 -.314E+00
   -.230E-04 0.582E+01 0.422E+02   0.175E-05 0.223E+02 -.419E+02   0.237E-22 -.257E+02 -.268E+00
   0.787E-05 -.417E+02 -.481E+01   0.166E-05 0.152E+02 0.510E+01   -.316E-21 0.242E+02 -.270E+00
   0.353E-05 0.425E+02 0.209E+02   -.178E-05 -.421E+02 0.639E+01   -.113E-22 -.368E+00 -.249E+02
   0.575E-05 -.136E+01 0.884E+01   -.182E-05 0.152E+01 -.376E+02   -.291E-22 -.143E+00 0.263E+02
   0.874E+01 -.624E+00 0.624E+00   0.193E+02 0.759E+00 -.759E+00   -.256E+02 -.124E+00 0.124E+00
   -.874E+01 -.624E+00 0.624E+00   -.193E+02 0.759E+00 -.759E+00   0.256E+02 -.124E+00 0.124E+00
   0.719E-05 -.884E+01 0.136E+01   -.182E-05 0.376E+02 -.152E+01   0.907E-22 -.263E+02 0.143E+00
   -.388E-06 -.209E+02 -.425E+02   -.178E-05 -.639E+01 0.421E+02   -.935E-22 0.249E+02 0.368E+00
   0.181E-06 0.136E+01 -.884E+01   -.182E-05 -.152E+01 0.376E+02   0.410E-22 0.143E+00 -.263E+02
   0.575E-05 -.425E+02 -.209E+02   -.178E-05 0.421E+02 -.639E+01   -.101E-22 0.368E+00 0.249E+02
   0.874E+01 0.624E+00 -.624E+00   0.193E+02 -.759E+00 0.759E+00   -.256E+02 0.124E+00 -.124E+00
   -.874E+01 0.624E+00 -.624E+00   -.193E+02 -.759E+00 0.759E+00   0.256E+02 0.124E+00 -.124E+00
   0.125E-04 0.209E+02 0.425E+02   -.178E-05 0.639E+01 -.421E+02   0.245E-22 -.249E+02 -.368E+00
   0.273E-05 0.884E+01 -.136E+01   -.182E-05 -.376E+02 0.152E+01   -.844E-22 0.263E+02 -.143E+00
   0.272E-05 -.229E-03 -.219E-03   -.456E-05 0.250E-10 0.262E-09   0.221E-23 -.264E-21 0.446E-21
   0.448E-05 0.204E-03 -.224E-03   -.453E-05 -.395E-09 -.620E-09   0.116E-23 0.314E-21 0.503E-20
   0.138E-05 0.411E-04 0.417E-04   0.452E-05 -.106E-09 -.187E-10   -.174E-22 0.193E-20 -.280E-20
   0.418E-05 -.243E-03 0.197E-03   -.453E-05 -.418E-09 -.361E-09   0.525E-24 -.144E-20 0.205E-20
 -----------------------------------------------------------------------------------------------
   0.107E-03 -.141E-02 -.108E-02   -.211E-12 0.140E-12 -.646E-12   0.355E-14 0.536E-21 -.239E-14
 
 
 POSITION                                       TOTAL-FORCE (eV/Angst)
 -----------------------------------------------------------------------------------
     -0.00000      0.04091      5.07004         0.000000     -0.004107      0.004107
      5.11096     10.18051     10.18051         0.000000     -0.002916     -0.002916
     -0.00000      5.07004      0.04091        -0.000000      0.004107     -0.004107
      5.11096      5.15236      5.15236        -0.000000      0.002916      0.002916
     -0.00000      0.01006      0.01006        -0.000000      0.004877      0.004877
     -0.00000      5.10090      5.10090        -0.000000     -0.004877     -0.004877
      5.11096      0.00162      5.10934        -0.000000      0.004706     -0.004706
      5.11096      5.10934      0.00162         0.000000     -0.004706      0.004706
     -0.00000      0.00749      1.89107         0.000000      0.000748      0.001377
     -0.00000      0.02584      8.34426        -0.000000      0.000188     -0.000367
      1.89732      0.00973      0.00973         0.001167     -0.000162     -0.000162
      8.32459      0.00973      0.00973        -0.001167     -0.000162     -0.000162
     -0.00000      1.89107      0.00749         0.000000      0.001377      0.000748
     -0.00000      8.34426      0.02584        -0.000000     -0.000367      0.000188
     -0.00000      5.08512      6.98861         0.000000     -0.000188      0.000367
     -0.00000      5.10347      3.21988        -0.000000     -0.000748     -0.001377
      1.89732      5.10123      5.10123         0.001167      0.000162      0.000162
      8.32459      5.10123      5.10123        -0.001167      0.000162      0.000162
     -0.00000      6.98861      5.08512         0.000000      0.000367     -0.000188
     -0.00000      3.21988      5.10347        -0.000000     -0.001377     -0.000748
      5.11096     10.20689      6.97447        -0.000000      0.000192      0.003236
      5.11096      0.00333      3.24784        -0.000000      0.000465     -0.002889
      7.00415     10.22139      5.11148         0.001168      0.000977     -0.000977
      3.21777     10.22139      5.11148        -0.001168      0.000977     -0.000977
      5.11096      1.86311      5.10763        -0.000000      0.002889     -0.000465
      5.11096      8.35841      5.12598         0.000000     -0.003236     -0.000192
      5.11096      5.10763      1.86311         0.000000     -0.000465      0.002889
      5.11096      5.12598      8.35841         0.000000     -0.000192     -0.003236
      7.00415      5.11148     10.22139         0.001168     -0.000977      0.000977
      3.21777      5.11148     10.22139        -0.001168     -0.000977      0.000977
      5.11096      6.97447     10.20689        -0.000000      0.003236      0.000192
      5.11096      3.24784      0.00333         0.000000     -0.002889      0.000465
     -0.00000     10.21989      3.05384        -0.000000      0.001856     -0.000790
     -0.00000     10.18397      7.17913         0.000000     -0.001598     -0.000236
      3.06701     10.22037     10.22037         0.002092     -0.001264     -0.001264
      7.15491     10.22037     10.22037        -0.002092     -0.001264     -0.001264
     -0.00000      3.05384     10.21989         0.000000     -0.000790      0.001856
     -0.00000      7.17913     10.18397        -0.000000     -0.000236     -0.001598
     -0.00000      5.14891      8.15374         0.000000      0.001598      0.000236
     -0.00000      5.11298      2.05711         0.000000     -0.001856      0.000790
      3.06701      5.11250      5.11250         0.002092      0.001264      0.001264
      7.15491      5.11250      5.11250        -0.002092      0.001264      0.001264
     -0.00000      8.15374      5.14891         0.000000      0.000236      0.001598
     -0.00000      2.05711      5.11298         0.000000      0.000790     -0.001856
      5.11096      0.05164      8.13811        -0.000000      0.000632      0.003950
      5.11096      0.01042      2.07888         0.000000     -0.000332     -0.001780
      8.16338      0.00398      5.10697        -0.000358     -0.000539      0.000539
      2.05854      0.00398      5.10697         0.000358     -0.000539      0.000539
      5.11096      3.03208      5.10054        -0.000000      0.001780      0.000332
      5.11096      7.19476      5.05932        -0.000000     -0.003950     -0.000632
      5.11096      5.10054      3.03208        -0.000000      0.000332      0.001780
      5.11096      5.05932      7.19476         0.000000     -0.000632     -0.003950
      8.16338      5.10697      0.00398        -0.000358      0.000539     -0.000539
      2.05854      5.10697      0.00398         0.000358      0.000539     -0.000539
      5.11096      8.13811      0.05164         0.000000      0.003950      0.000632
      5.11096      2.07888      0.01042         0.000000     -0.001780     -0.000332
      5.11096      2.55548      2.55548        -0.000000     -0.000000     -0.000000
      5.11096      7.66644      2.55548         0.000000      0.000000     -0.000000
     -0.00000      7.66644      7.66644        -0.000000      0.000000     -0.000000
      5.11096      2.55548      7.66644        -0.000000     -0.000000     -0.000000
 -----------------------------------------------------------------------------------
    total drift:                                0.000107     -0.001409     -0.001076


--------------------------------------------------------------------------------------------------------



  FREE ENERGIE OF THE ION-ELECTRON SYSTEM (eV)
  ---------------------------------------------------
  free  energy   TOTEN  =      -593.94493137 eV

  energy  without entropy=     -593.94493137  energy(sigma->0) =     -593.94493137
 
 d Force = 0.1362148E-04[-0.604E-06, 0.278E-04]  d Energy = 0.2678513E-04-0.132E-04
 d Force = 0.4741198E-02[ 0.474E-02, 0.474E-02]  d Ewald  = 0.4741198E-02-0.855E-10


--------------------------------------------------------------------------------------------------------


    POTLOK:  cpu time    1.3258: real time    1.3315


--------------------------------------------------------------------------------------------------------


 Quasi-Newton relaxation of ions (Broydens 2nd method)
  g(Force)  = 0.102E-05   g(Stress)= 0.000E+00

 retain information from N=  8 steps
 eigenvalues of (default step * inverse Hessian matrix)
  average eigenvalue of G= 114.6009
 eigenvalue spectrum of G is840.5073 52.2074 13.0939  8.9239  1.3859  0.0894  0.0073  0.5921


--------------------------------------------------------------------------------------------------------


  
 reached required accuracy - stopping structural energy minimisation
 writing wavefunctions
     LOOP+:  cpu time  227.7674: real time  229.4244
    4ORBIT:  cpu time    0.0000: real time    0.0000



 total charge

# of ion       s       p       d       tot
------------------------------------------
    1        2.127   6.038   5.097  13.263
    2        2.124   6.034   5.121  13.280
    3        2.127   6.038   5.097  13.263
    4        2.124   6.034   5.121  13.280
    5        2.190   6.120   5.547  13.857
    6        2.190   6.120   5.547  13.857
    7        2.194   6.126   5.582  13.903
    8        2.194   6.126   5.582  13.903
    9        0.970   1.619   0.000   2.589
   10        0.972   1.619   0.000   2.591
   11        0.970   1.596   0.000   2.566
   12        0.970   1.596   0.000   2.566
   13        0.970   1.619   0.000   2.589
   14        0.972   1.619   0.000   2.591
   15        0.972   1.619   0.000   2.591
   16        0.970   1.619   0.000   2.589
   17        0.970   1.596   0.000   2.566
   18        0.970   1.596   0.000   2.566
   19        0.972   1.619   0.000   2.591
   20        0.970   1.619   0.000   2.589
   21        0.974   1.619   0.000   2.593
   22        0.975   1.627   0.000   2.602
   23        0.967   1.641   0.000   2.608
   24        0.967   1.641   0.000   2.608
   25        0.975   1.627   0.000   2.602
   26        0.974   1.619   0.000   2.593
   27        0.975   1.627   0.000   2.602
   28        0.974   1.619   0.000   2.593
   29        0.967   1.641   0.000   2.608
   30        0.967   1.641   0.000   2.608
   31        0.974   1.619   0.000   2.593
   32        0.975   1.627   0.000   2.602
   33        1.302   2.643   0.000   3.945
   34        1.304   2.628   0.000   3.933
   35        1.298   2.637   0.000   3.935
   36        1.298   2.637   0.000   3.935
   37        1.302   2.643   0.000   3.945
   38        1.304   2.628   0.000   3.933
   39        1.304   2.628   0.000   3.933
   40        1.302   2.643   0.000   3.945
   41        1.298   2.637   0.000   3.935
   42        1.298   2.637   0.000   3.935
   43        1.304   2.628   0.000   3.933
   44        1.302   2.643   0.000   3.945
   45        1.302   2.646   0.000   3.948
   46        1.305   2.632   0.000   3.937
   47        1.307   2.628   0.000   3.935
   48        1.307   2.628   0.000   3.935
   49        1.305   2.632   0.000   3.937
   50        1.302   2.646   0.000   3.948
   51        1.305   2.632   0.000   3.937
   52        1.302   2.646   0.000   3.948
   53        1.307   2.628   0.000   3.935
   54        1.307   2.628   0.000   3.935
   55        1.302   2.646   0.000   3.948
   56        1.305   2.632   0.000   3.937
   57        0.032   5.980   0.000   6.012
   58        0.033   5.981   0.000   6.014
   59        0.035   5.983   0.000   6.018
   60        0.033   5.981   0.000   6.014
--------------------------------------------------
tot         71.995 174.696  42.694 289.386



 magnetization (x)

# of ion       s       p       d       tot
------------------------------------------
    1        0.009   0.009   4.155   4.172
    2        0.009   0.008   4.120   4.138
    3        0.009   0.009   4.155   4.172
    4        0.009   0.008   4.120   4.138
    5        0.002   0.001   0.351   0.354
    6        0.002   0.001   0.351   0.354
    7        0.002   0.001   0.175   0.177
    8        0.002   0.001   0.175   0.177
    9        0.003   0.016   0.000   0.019
   10        0.002   0.005   0.000   0.007
   11        0.002   0.011   0.000   0.013
   12        0.002   0.011   0.000   0.013
   13        0.003   0.016   0.000   0.019
   14        0.002   0.005   0.000   0.007
   15        0.002   0.005   0.000   0.007
   16        0.003   0.016   0.000   0.019
   17        0.002   0.011   0.000   0.013
   18        0.002   0.011   0.000   0.013
   19        0.002   0.005   0.000   0.007
   20        0.003   0.016   0.000   0.019
   21        0.003   0.010   0.000   0.013
   22        0.003   0.002   0.000   0.005
   23        0.003   0.010   0.000   0.014
   24        0.003   0.010   0.000   0.014
   25        0.003   0.002   0.000   0.005
   26        0.003   0.010   0.000   0.013
   27        0.003   0.002   0.000   0.005
   28        0.003   0.010   0.000   0.013
   29        0.003   0.010   0.000   0.014
   30        0.003   0.010   0.000   0.014
   31        0.003   0.010   0.000   0.013
   32        0.003   0.002   0.000   0.005
   33        0.018   0.038   0.000   0.056
   34        0.016   0.030   0.000   0.046
   35        0.017   0.046   0.000   0.063
   36        0.017   0.046   0.000   0.063
   37        0.018   0.038   0.000   0.056
   38        0.016   0.030   0.000   0.046
   39        0.016   0.030   0.000   0.046
   40        0.018   0.038   0.000   0.056
   41        0.017   0.046   0.000   0.063
   42        0.017   0.046   0.000   0.063
   43        0.016   0.030   0.000   0.046
   44        0.018   0.038   0.000   0.056
   45        0.016   0.034   0.000   0.050
   46        0.015   0.029   0.000   0.045
   47        0.017   0.034   0.000   0.051
   48        0.017   0.034   0.000   0.051
   49        0.015   0.029   0.000   0.045
   50        0.016   0.034   0.000   0.050
   51        0.015   0.029   0.000   0.045
   52        0.016   0.034   0.000   0.050
   53        0.017   0.034   0.000   0.051
   54        0.017   0.034   0.000   0.051
   55        0.016   0.034   0.000   0.050
   56        0.015   0.029   0.000   0.045
   57        0.000   0.000   0.000   0.000
   58        0.001   0.000   0.000   0.001
   59        0.001   0.000   0.000   0.001
   60        0.001   0.000   0.000   0.001
--------------------------------------------------
tot          0.510   1.098  17.602  19.210
 

 total amount of memory used by VASP MPI-rank0  1370520. kBytes
=======================================================================

   base      :      30000. kBytes
   nonlr-proj:     787314. kBytes
   fftplans  :       2376. kBytes
   grid      :      21951. kBytes
   one-center:       2079. kBytes
   HF        :        361. kBytes
   wavefun   :      18453. kBytes
   fock_wrk  :     507986. kBytes
 
  
  
 General timing and accounting informations for this job:
 ========================================================
  
                  Total CPU time used (sec):    16648.826
                            User time (sec):    15931.546
                          System time (sec):      717.280
                         Elapsed time (sec):    16779.011
  
                   Maximum memory used (kb):     3163348.
                   Average memory used (kb):          N/A
  
                          Minor page faults:     45324739
                          Major page faults:          579
                 Voluntary context switches:       175480
