 vasp.6.3.2 27Jun22 (build Jan 30 2024 13:58:15) complex                         
 executed on              LinuxNV date 2025.01.10  13:28:58
 running on   40 total cores
 distrk:  each k-point on   20 cores,    2 groups
 distr:  one band on NCORE=   1 cores,   20 groups


--------------------------------------------------------------------------------------------------------


 INCAR:
   PREC = Accurate
   ENCUT = 450
   ISPIN = 1
   NCORE = 1
   KPAR = 2
   ISTART = 0
   ISMEAR = 1
   SIGMA = 0.1
   NSW = 1
   NELMIN = 5
   NELM = 150
   IBRION = 1
   POTIM = 0.2
   LMAXMIX = 4
   ISIF = 3
   ISYM = 1
   EDIFF = 1E-06
   EDIFFG = -0.01
   LREAL = Auto
   LCHARG = .FALSE.
   LWAVE = .FALSE.
   LORBIT = 11
   NELMDL = -9
   KSPACING = 0.16

 POTCAR:    PAW_PBE Al 04Jan2001                  
 -----------------------------------------------------------------------------
|                                                                             |
|           W    W    AA    RRRRR   N    N  II  N    N   GGGG   !!!           |
|           W    W   A  A   R    R  NN   N  II  NN   N  G    G  !!!           |
|           W    W  A    A  R    R  N N  N  II  N N  N  G       !!!           |
|           W WW W  AAAAAA  RRRRR   N  N N  II  N  N N  G  GGG   !            |
|           WW  WW  A    A  R   R   N   NN  II  N   NN  G    G                |
|           W    W  A    A  R    R  N    N  II  N    N   GGGG   !!!           |
|                                                                             |
|     For optimal performance we recommend to set                             |
|       NCORE = 2 up to number-of-cores-per-socket                            |
|     NCORE specifies how many cores store one orbital (NPAR=cpu/NCORE).      |
|     This setting can greatly improve the performance of VASP for DFT.       |
|     The default, NCORE=1 might be grossly inefficient on modern             |
|     multi-core architectures or massively parallel machines. Do your        |
|     own testing! More info at https://www.vasp.at/wiki/index.php/NCORE      |
|     Unfortunately you need to use the default for GW and RPA                |
|     calculations (for HF NCORE is supported but not extensively tested      |
|     yet).                                                                   |
|                                                                             |
 -----------------------------------------------------------------------------

 POTCAR:    PAW_PBE Al 04Jan2001                  
   SHA256 =  17880443556af62b473fe41b62a467bd001ad55d2cabe504a3f22e34d4e9db96 Al/POTCAR             
   COPYR  = (c) Copyright 04Jan2001 Georg Kresse                                                    
   COPYR  = This file is part of the software VASP. Any use, copying, and all other rights are regul
   COPYR  = If you do not have a valid VASP license, you may not use, copy or distribute this file. 
   VRHFIN =Al: s2p1                                                                                 
   LEXCH  = PE                                                                                      
   EATOM  =    53.5387 eV,    3.9350 Ry                                                             
                                                                                                    
   TITEL  = PAW_PBE Al 04Jan2001                                                                    
   LULTRA =        F    use ultrasoft PP ?                                                          
   IUNSCR =        1    unscreen: 0-lin 1-nonlin 2-no                                               
   RPACOR =    1.500    partial core radius                                                         
   POMASS =   26.981; ZVAL   =    3.000    mass and valenz                                          
   RCORE  =    1.900    outmost cutoff radius                                                       
   RWIGS  =    2.650; RWIGS  =    1.402    wigner-seitz radius (au A)                               
   ENMAX  =  240.300; ENMIN  =  180.225 eV                                                          
   ICORE  =        2    local potential                                                             
   LCOR   =        T    correct aug charges                                                         
   LPAW   =        T    paw PP                                                                      
   EAUG   =  291.052                                                                                
   DEXC   =    0.000                                                                                
   RMAX   =    1.939    core radius for proj-oper                                                   
   RAUG   =    1.300    factor for augmentation sphere                                              
   RDEP   =    1.966    radius for radial grids                                                     
   RDEPT  =    1.856    core radius for aug-charge                                                  
                                                                                                    
   Atomic configuration                                                                             
    6 entries                                                                                       
     n  l   j            E        occ.                                                              
     1  0  0.50     -1511.1048   2.0000                                                             
     2  0  0.50      -108.1629   2.0000                                                             
     2  1  1.50       -69.6402   6.0000                                                             
     3  0  0.50        -7.7528   2.0000                                                             
     3  1  1.50        -2.7121   1.0000                                                             
     3  2  2.50        -2.7212   0.0000                                                             
   Description                                                                                      
     l       E           TYP  RCUT    TYP  RCUT                                                     
     0     -7.7528455     23  1.900                                                                 
     0     -3.3096929     23  1.900                                                                 
     1     -2.7120682     23  1.900                                                                 
     1     13.6058260     23  1.900                                                                 
     2     -2.7211652      7  1.900                                                                 
  local pseudopotential read in
  partial core-charges read in
  partial kinetic energy density read in
  atomic valenz-charges read in
  non local Contribution for L=            0  read in
    real space projection operators read in
  non local Contribution for L=            0  read in
    real space projection operators read in
  non local Contribution for L=            1  read in
    real space projection operators read in
  non local Contribution for L=            1  read in
    real space projection operators read in
    PAW grid and wavefunctions read in
 
   number of l-projection  operators is LMAX  =            4
   number of lm-projection operators is LMMAX =            8
 
 -----------------------------------------------------------------------------
|                                                                             |
|               ----> ADVICE to this user running VASP <----                  |
|                                                                             |
|     You have a (more or less) 'small supercell' and for smaller cells       |
|     it is recommended to use the reciprocal-space projection scheme!        |
|     The real-space optimization is not efficient for small cells and it     |
|     is also less accurate ...                                               |
|     Therefore, set LREAL=.FALSE. in the INCAR file.                         |
|                                                                             |
 -----------------------------------------------------------------------------

 Optimization of the real space projectors (new method)

 maximal supplied QI-value         = 19.84
 optimisation between [QCUT,QGAM] = [ 10.71, 21.63] = [ 32.15,130.99] Ry 
 Optimized for a Real-space Cutoff    1.19 Angstroem

   l    n(q)    QCUT    max X(q) W(low)/X(q) W(high)/X(q)  e(spline) 
   0      8    10.715   176.870    0.24E-03    0.22E-04    0.40E-07
   0      8    10.715   105.762    0.24E-03    0.21E-04    0.40E-07
   1      7    10.715    55.370    0.14E-03    0.39E-03    0.72E-07
   1      7    10.715    20.208    0.13E-03    0.36E-03    0.67E-07
  PAW_PBE Al 04Jan2001                  :
 energy of atom  1       EATOM=  -53.5387
 kinetic energy error for atom=    0.0004 (will be added to EATOM!!)
 
 
 POSCAR: For VASP. System= BMG
  positions in direct lattice
  No initial velocities read in
 exchange correlation table for  LEXCH =        8
   RHO(1)=    0.500       N(1)  =     2000
   RHO(2)=  100.500       N(2)  =     4000
 


--------------------------------------------------------------------------------------------------------


 ion  position               nearest neighbor table
   1  0.000  0.000  0.000-
 
  LATTYP: Found a triclinic cell.
 ALAT       =     2.8559775935
 B/A-ratio  =     1.4090664207
 C/A-ratio  =     1.0052600842
 COS(alpha) =     0.0014121965
 COS(beta)  =     0.5026301718
 COS(gamma) =     0.7059526794
  
  Lattice vectors:
  
 A1 = (   2.4733290000,   0.0114238200,  -1.4279780000)
 A2 = (   1.6488860000,  -2.3204531800,  -2.8445311828)
 A3 = (   0.8244430000,   2.3433008200,  -1.4394018172)


Analysis of symmetry for initial positions (statically):
=====================================================================
 Subroutine PRICEL returns:
 Original cell was already a primitive cell.
 

 Routine SETGRP: Setting up the symmetry group for a 
 triclinic supercell.


 Subroutine GETGRP returns: Found  2 space group operations
 (whereof  2 operations were pure point group operations)
 out of a pool of  2 trial point group operations.


The static configuration has the point symmetry S_2 .


Analysis of symmetry for dynamics (positions and initial velocities):
=====================================================================
 Subroutine PRICEL returns:
 Original cell was already a primitive cell.
 

 Routine SETGRP: Setting up the symmetry group for a 
 triclinic supercell.


 Subroutine GETGRP returns: Found  2 space group operations
 (whereof  2 operations were pure point group operations)
 out of a pool of  2 trial point group operations.


The dynamic configuration has the point symmetry S_2 .


 Subroutine INISYM returns: Found  2 space group operations
 (whereof  2 operations are pure point group operations),
 and found     1 'primitive' translations


----------------------------------------------------------------------------------------

                                     Primitive cell                                     

  volume of cell :      16.4983

  direct lattice vectors                    reciprocal lattice vectors
     2.473329000  0.000000000  1.427977000     0.404642966 -0.142716104 -0.000570864
     0.824443000  2.331877000  1.416553183    -0.000988766  0.428148312  0.001712593
     0.000000000 -0.011423820  2.855955000    -0.201830984 -0.141003461  0.349581559

  length of vectors
     2.855954246  2.850259554  2.855977848     0.429073586  0.428152879  0.427580389

  position of ions in fractional coordinates (direct lattice)
     0.000000000  0.000000000  0.000000000

  ion indices of the primitive-cell ions
   primitive index   ion index
                 1           1

----------------------------------------------------------------------------------------

 
 -----------------------------------------------------------------------------
|                                                                             |
|           W    W    AA    RRRRR   N    N  II  N    N   GGGG   !!!           |
|           W    W   A  A   R    R  NN   N  II  NN   N  G    G  !!!           |
|           W    W  A    A  R    R  N N  N  II  N N  N  G       !!!           |
|           W WW W  AAAAAA  RRRRR   N  N N  II  N  N N  G  GGG   !            |
|           WW  WW  A    A  R   R   N   NN  II  N   NN  G    G                |
|           W    W  A    A  R    R  N    N  II  N    N   GGGG   !!!           |
|                                                                             |
|     The requested file  could not be found or opened for reading            |
|     k-point information. Automatic k-point generation is used as a          |
|     fallback, which may lead to unwanted results.                           |
|                                                                             |
 -----------------------------------------------------------------------------

 

Automatic generation of k-mesh.
 Grid dimensions derived from KSPACING:
 generate k-points for:   17   17   17

 Generating k-lattice:

  Cartesian coordinates                     Fractional coordinates (reciprocal lattice)
     0.023802527 -0.008395065 -0.000033580     0.058823529  0.000000000 -0.000000000
    -0.000058163  0.025185195  0.000100741     0.000000000  0.058823529 -0.000000000
    -0.011872411 -0.008294321  0.020563621    -0.000000000  0.000000000  0.058823529

  Length of vectors
     0.025239623  0.025185463  0.025151788

  Shift w.r.t. Gamma in fractional coordinates (k-lattice)
     0.000000000  0.000000000  0.000000000

 
 Subroutine IBZKPT returns following result:
 ===========================================
 
 Found   2457 irreducible k-points:
 
 Following reciprocal coordinates:
            Coordinates               Weight
  0.000000  0.000000  0.000000      1.000000
  0.058824  0.000000  0.000000      2.000000
  0.117647  0.000000  0.000000      2.000000
  0.176471  0.000000  0.000000      2.000000
  0.235294  0.000000  0.000000      2.000000
  0.294118  0.000000  0.000000      2.000000
  0.352941  0.000000  0.000000      2.000000
  0.411765  0.000000  0.000000      2.000000
  0.470588  0.000000  0.000000      2.000000
  0.000000  0.058824  0.000000      2.000000
  0.058824  0.058824  0.000000      2.000000
  0.117647  0.058824  0.000000      2.000000
  0.176471  0.058824  0.000000      2.000000
  0.235294  0.058824  0.000000      2.000000
  0.294118  0.058824  0.000000      2.000000
  0.352941  0.058824  0.000000      2.000000
  0.411765  0.058824  0.000000      2.000000
  0.470588  0.058824  0.000000      2.000000
 -0.470588  0.058824  0.000000      2.000000
 -0.411765  0.058824  0.000000      2.000000
 -0.352941  0.058824  0.000000      2.000000
 -0.294118  0.058824  0.000000      2.000000
 -0.235294  0.058824  0.000000      2.000000
 -0.176471  0.058824  0.000000      2.000000
 -0.117647  0.058824  0.000000      2.000000
 -0.058824  0.058824  0.000000      2.000000
  0.000000  0.117647  0.000000      2.000000
  0.058824  0.117647  0.000000      2.000000
  0.117647  0.117647  0.000000      2.000000
  0.176471  0.117647  0.000000      2.000000
  0.235294  0.117647  0.000000      2.000000
  0.294118  0.117647  0.000000      2.000000
  0.352941  0.117647  0.000000      2.000000
  0.411765  0.117647  0.000000      2.000000
  0.470588  0.117647  0.000000      2.000000
 -0.470588  0.117647  0.000000      2.000000
 -0.411765  0.117647  0.000000      2.000000
 -0.352941  0.117647  0.000000      2.000000
 -0.294118  0.117647  0.000000      2.000000
 -0.235294  0.117647  0.000000      2.000000
 -0.176471  0.117647  0.000000      2.000000
 -0.117647  0.117647  0.000000      2.000000
 -0.058824  0.117647  0.000000      2.000000
  0.000000  0.176471  0.000000      2.000000
  0.058824  0.176471  0.000000      2.000000
  0.117647  0.176471  0.000000      2.000000
  0.176471  0.176471  0.000000      2.000000
  0.235294  0.176471  0.000000      2.000000
  0.294118  0.176471  0.000000      2.000000
  0.352941  0.176471  0.000000      2.000000
  0.411765  0.176471  0.000000      2.000000
  0.470588  0.176471  0.000000      2.000000
 -0.470588  0.176471  0.000000      2.000000
 -0.411765  0.176471  0.000000      2.000000
 -0.352941  0.176471  0.000000      2.000000
 -0.294118  0.176471  0.000000      2.000000
 -0.235294  0.176471  0.000000      2.000000
 -0.176471  0.176471  0.000000      2.000000
 -0.117647  0.176471  0.000000      2.000000
 -0.058824  0.176471  0.000000      2.000000
  0.000000  0.235294  0.000000      2.000000
  0.058824  0.235294  0.000000      2.000000
  0.117647  0.235294  0.000000      2.000000
  0.176471  0.235294  0.000000      2.000000
  0.235294  0.235294  0.000000      2.000000
  0.294118  0.235294  0.000000      2.000000
  0.352941  0.235294  0.000000      2.000000
  0.411765  0.235294  0.000000      2.000000
  0.470588  0.235294  0.000000      2.000000
 -0.470588  0.235294  0.000000      2.000000
 -0.411765  0.235294  0.000000      2.000000
 -0.352941  0.235294  0.000000      2.000000
 -0.294118  0.235294  0.000000      2.000000
 -0.235294  0.235294  0.000000      2.000000
 -0.176471  0.235294  0.000000      2.000000
 -0.117647  0.235294  0.000000      2.000000
 -0.058824  0.235294  0.000000      2.000000
  0.000000  0.294118  0.000000      2.000000
  0.058824  0.294118  0.000000      2.000000
  0.117647  0.294118  0.000000      2.000000
  0.176471  0.294118  0.000000      2.000000
  0.235294  0.294118  0.000000      2.000000
  0.294118  0.294118  0.000000      2.000000
  0.352941  0.294118  0.000000      2.000000
  0.411765  0.294118  0.000000      2.000000
  0.470588  0.294118  0.000000      2.000000
 -0.470588  0.294118  0.000000      2.000000
 -0.411765  0.294118  0.000000      2.000000
 -0.352941  0.294118  0.000000      2.000000
 -0.294118  0.294118  0.000000      2.000000
 -0.235294  0.294118  0.000000      2.000000
 -0.176471  0.294118  0.000000      2.000000
 -0.117647  0.294118  0.000000      2.000000
 -0.058824  0.294118  0.000000      2.000000
  0.000000  0.352941  0.000000      2.000000
  0.058824  0.352941  0.000000      2.000000
  0.117647  0.352941  0.000000      2.000000
  0.176471  0.352941  0.000000      2.000000
  0.235294  0.352941  0.000000      2.000000
  0.294118  0.352941  0.000000      2.000000
  0.352941  0.352941  0.000000      2.000000
  0.411765  0.352941  0.000000      2.000000
  0.470588  0.352941  0.000000      2.000000
 -0.470588  0.352941  0.000000      2.000000
 -0.411765  0.352941  0.000000      2.000000
 -0.352941  0.352941  0.000000      2.000000
 -0.294118  0.352941  0.000000      2.000000
 -0.235294  0.352941  0.000000      2.000000
 -0.176471  0.352941  0.000000      2.000000
 -0.117647  0.352941  0.000000      2.000000
 -0.058824  0.352941  0.000000      2.000000
  0.000000  0.411765  0.000000      2.000000
  0.058824  0.411765  0.000000      2.000000
  0.117647  0.411765  0.000000      2.000000
  0.176471  0.411765  0.000000      2.000000
  0.235294  0.411765  0.000000      2.000000
  0.294118  0.411765  0.000000      2.000000
  0.352941  0.411765  0.000000      2.000000
  0.411765  0.411765  0.000000      2.000000
  0.470588  0.411765  0.000000      2.000000
 -0.470588  0.411765  0.000000      2.000000
 -0.411765  0.411765  0.000000      2.000000
 -0.352941  0.411765  0.000000      2.000000
 -0.294118  0.411765  0.000000      2.000000
 -0.235294  0.411765  0.000000      2.000000
 -0.176471  0.411765  0.000000      2.000000
 -0.117647  0.411765  0.000000      2.000000
 -0.058824  0.411765  0.000000      2.000000
  0.000000  0.470588  0.000000      2.000000
  0.058824  0.470588  0.000000      2.000000
  0.117647  0.470588  0.000000      2.000000
  0.176471  0.470588  0.000000      2.000000
  0.235294  0.470588  0.000000      2.000000
  0.294118  0.470588  0.000000      2.000000
  0.352941  0.470588  0.000000      2.000000
  0.411765  0.470588  0.000000      2.000000
  0.470588  0.470588  0.000000      2.000000
 -0.470588  0.470588  0.000000      2.000000
 -0.411765  0.470588  0.000000      2.000000
 -0.352941  0.470588  0.000000      2.000000
 -0.294118  0.470588  0.000000      2.000000
 -0.235294  0.470588  0.000000      2.000000
 -0.176471  0.470588  0.000000      2.000000
 -0.117647  0.470588  0.000000      2.000000
 -0.058824  0.470588  0.000000      2.000000
  0.000000  0.000000  0.058824      2.000000
  0.058824  0.000000  0.058824      2.000000
  0.117647  0.000000  0.058824      2.000000
  0.176471  0.000000  0.058824      2.000000
  0.235294  0.000000  0.058824      2.000000
  0.294118  0.000000  0.058824      2.000000
  0.352941  0.000000  0.058824      2.000000
  0.411765  0.000000  0.058824      2.000000
  0.470588  0.000000  0.058824      2.000000
 -0.470588  0.000000  0.058824      2.000000
 -0.411765  0.000000  0.058824      2.000000
 -0.352941  0.000000  0.058824      2.000000
 -0.294118  0.000000  0.058824      2.000000
 -0.235294  0.000000  0.058824      2.000000
 -0.176471  0.000000  0.058824      2.000000
 -0.117647  0.000000  0.058824      2.000000
 -0.058824  0.000000  0.058824      2.000000
  0.000000  0.058824  0.058824      2.000000
  0.058824  0.058824  0.058824      2.000000
  0.117647  0.058824  0.058824      2.000000
  0.176471  0.058824  0.058824      2.000000
  0.235294  0.058824  0.058824      2.000000
  0.294118  0.058824  0.058824      2.000000
  0.352941  0.058824  0.058824      2.000000
  0.411765  0.058824  0.058824      2.000000
  0.470588  0.058824  0.058824      2.000000
 -0.470588  0.058824  0.058824      2.000000
 -0.411765  0.058824  0.058824      2.000000
 -0.352941  0.058824  0.058824      2.000000
 -0.294118  0.058824  0.058824      2.000000
 -0.235294  0.058824  0.058824      2.000000
 -0.176471  0.058824  0.058824      2.000000
 -0.117647  0.058824  0.058824      2.000000
 -0.058824  0.058824  0.058824      2.000000
  0.000000  0.117647  0.058824      2.000000
  0.058824  0.117647  0.058824      2.000000
  0.117647  0.117647  0.058824      2.000000
  0.176471  0.117647  0.058824      2.000000
  0.235294  0.117647  0.058824      2.000000
  0.294118  0.117647  0.058824      2.000000
  0.352941  0.117647  0.058824      2.000000
  0.411765  0.117647  0.058824      2.000000
  0.470588  0.117647  0.058824      2.000000
 -0.470588  0.117647  0.058824      2.000000
 -0.411765  0.117647  0.058824      2.000000
 -0.352941  0.117647  0.058824      2.000000
 -0.294118  0.117647  0.058824      2.000000
 -0.235294  0.117647  0.058824      2.000000
 -0.176471  0.117647  0.058824      2.000000
 -0.117647  0.117647  0.058824      2.000000
 -0.058824  0.117647  0.058824      2.000000
  0.000000  0.176471  0.058824      2.000000
  0.058824  0.176471  0.058824      2.000000
  0.117647  0.176471  0.058824      2.000000
  0.176471  0.176471  0.058824      2.000000
  0.235294  0.176471  0.058824      2.000000
  0.294118  0.176471  0.058824      2.000000
  0.352941  0.176471  0.058824      2.000000
  0.411765  0.176471  0.058824      2.000000
  0.470588  0.176471  0.058824      2.000000
 -0.470588  0.176471  0.058824      2.000000
 -0.411765  0.176471  0.058824      2.000000
 -0.352941  0.176471  0.058824      2.000000
 -0.294118  0.176471  0.058824      2.000000
 -0.235294  0.176471  0.058824      2.000000
 -0.176471  0.176471  0.058824      2.000000
 -0.117647  0.176471  0.058824      2.000000
 -0.058824  0.176471  0.058824      2.000000
  0.000000  0.235294  0.058824      2.000000
  0.058824  0.235294  0.058824      2.000000
  0.117647  0.235294  0.058824      2.000000
  0.176471  0.235294  0.058824      2.000000
  0.235294  0.235294  0.058824      2.000000
  0.294118  0.235294  0.058824      2.000000
  0.352941  0.235294  0.058824      2.000000
  0.411765  0.235294  0.058824      2.000000
  0.470588  0.235294  0.058824      2.000000
 -0.470588  0.235294  0.058824      2.000000
 -0.411765  0.235294  0.058824      2.000000
 -0.352941  0.235294  0.058824      2.000000
 -0.294118  0.235294  0.058824      2.000000
 -0.235294  0.235294  0.058824      2.000000
 -0.176471  0.235294  0.058824      2.000000
 -0.117647  0.235294  0.058824      2.000000
 -0.058824  0.235294  0.058824      2.000000
  0.000000  0.294118  0.058824      2.000000
  0.058824  0.294118  0.058824      2.000000
  0.117647  0.294118  0.058824      2.000000
  0.176471  0.294118  0.058824      2.000000
  0.235294  0.294118  0.058824      2.000000
  0.294118  0.294118  0.058824      2.000000
  0.352941  0.294118  0.058824      2.000000
  0.411765  0.294118  0.058824      2.000000
  0.470588  0.294118  0.058824      2.000000
 -0.470588  0.294118  0.058824      2.000000
 -0.411765  0.294118  0.058824      2.000000
 -0.352941  0.294118  0.058824      2.000000
 -0.294118  0.294118  0.058824      2.000000
 -0.235294  0.294118  0.058824      2.000000
 -0.176471  0.294118  0.058824      2.000000
 -0.117647  0.294118  0.058824      2.000000
 -0.058824  0.294118  0.058824      2.000000
  0.000000  0.352941  0.058824      2.000000
  0.058824  0.352941  0.058824      2.000000
  0.117647  0.352941  0.058824      2.000000
  0.176471  0.352941  0.058824      2.000000
  0.235294  0.352941  0.058824      2.000000
  0.294118  0.352941  0.058824      2.000000
  0.352941  0.352941  0.058824      2.000000
  0.411765  0.352941  0.058824      2.000000
  0.470588  0.352941  0.058824      2.000000
 -0.470588  0.352941  0.058824      2.000000
 -0.411765  0.352941  0.058824      2.000000
 -0.352941  0.352941  0.058824      2.000000
 -0.294118  0.352941  0.058824      2.000000
 -0.235294  0.352941  0.058824      2.000000
 -0.176471  0.352941  0.058824      2.000000
 -0.117647  0.352941  0.058824      2.000000
 -0.058824  0.352941  0.058824      2.000000
  0.000000  0.411765  0.058824      2.000000
  0.058824  0.411765  0.058824      2.000000
  0.117647  0.411765  0.058824      2.000000
  0.176471  0.411765  0.058824      2.000000
  0.235294  0.411765  0.058824      2.000000
  0.294118  0.411765  0.058824      2.000000
  0.352941  0.411765  0.058824      2.000000
  0.411765  0.411765  0.058824      2.000000
  0.470588  0.411765  0.058824      2.000000
 -0.470588  0.411765  0.058824      2.000000
 -0.411765  0.411765  0.058824      2.000000
 -0.352941  0.411765  0.058824      2.000000
 -0.294118  0.411765  0.058824      2.000000
 -0.235294  0.411765  0.058824      2.000000
 -0.176471  0.411765  0.058824      2.000000
 -0.117647  0.411765  0.058824      2.000000
 -0.058824  0.411765  0.058824      2.000000
  0.000000  0.470588  0.058824      2.000000
  0.058824  0.470588  0.058824      2.000000
  0.117647  0.470588  0.058824      2.000000
  0.176471  0.470588  0.058824      2.000000
  0.235294  0.470588  0.058824      2.000000
  0.294118  0.470588  0.058824      2.000000
  0.352941  0.470588  0.058824      2.000000
  0.411765  0.470588  0.058824      2.000000
  0.470588  0.470588  0.058824      2.000000
 -0.470588  0.470588  0.058824      2.000000
 -0.411765  0.470588  0.058824      2.000000
 -0.352941  0.470588  0.058824      2.000000
 -0.294118  0.470588  0.058824      2.000000
 -0.235294  0.470588  0.058824      2.000000
 -0.176471  0.470588  0.058824      2.000000
 -0.117647  0.470588  0.058824      2.000000
 -0.058824  0.470588  0.058824      2.000000
  0.000000 -0.470588  0.058824      2.000000
  0.058824 -0.470588  0.058824      2.000000
  0.117647 -0.470588  0.058824      2.000000
  0.176471 -0.470588  0.058824      2.000000
  0.235294 -0.470588  0.058824      2.000000
  0.294118 -0.470588  0.058824      2.000000
  0.352941 -0.470588  0.058824      2.000000
  0.411765 -0.470588  0.058824      2.000000
  0.470588 -0.470588  0.058824      2.000000
 -0.470588 -0.470588  0.058824      2.000000
 -0.411765 -0.470588  0.058824      2.000000
 -0.352941 -0.470588  0.058824      2.000000
 -0.294118 -0.470588  0.058824      2.000000
 -0.235294 -0.470588  0.058824      2.000000
 -0.176471 -0.470588  0.058824      2.000000
 -0.117647 -0.470588  0.058824      2.000000
 -0.058824 -0.470588  0.058824      2.000000
  0.000000 -0.411765  0.058824      2.000000
  0.058824 -0.411765  0.058824      2.000000
  0.117647 -0.411765  0.058824      2.000000
  0.176471 -0.411765  0.058824      2.000000
  0.235294 -0.411765  0.058824      2.000000
  0.294118 -0.411765  0.058824      2.000000
  0.352941 -0.411765  0.058824      2.000000
  0.411765 -0.411765  0.058824      2.000000
  0.470588 -0.411765  0.058824      2.000000
 -0.470588 -0.411765  0.058824      2.000000
 -0.411765 -0.411765  0.058824      2.000000
 -0.352941 -0.411765  0.058824      2.000000
 -0.294118 -0.411765  0.058824      2.000000
 -0.235294 -0.411765  0.058824      2.000000
 -0.176471 -0.411765  0.058824      2.000000
 -0.117647 -0.411765  0.058824      2.000000
 -0.058824 -0.411765  0.058824      2.000000
  0.000000 -0.352941  0.058824      2.000000
  0.058824 -0.352941  0.058824      2.000000
  0.117647 -0.352941  0.058824      2.000000
  0.176471 -0.352941  0.058824      2.000000
  0.235294 -0.352941  0.058824      2.000000
  0.294118 -0.352941  0.058824      2.000000
  0.352941 -0.352941  0.058824      2.000000
  0.411765 -0.352941  0.058824      2.000000
  0.470588 -0.352941  0.058824      2.000000
 -0.470588 -0.352941  0.058824      2.000000
 -0.411765 -0.352941  0.058824      2.000000
 -0.352941 -0.352941  0.058824      2.000000
 -0.294118 -0.352941  0.058824      2.000000
 -0.235294 -0.352941  0.058824      2.000000
 -0.176471 -0.352941  0.058824      2.000000
 -0.117647 -0.352941  0.058824      2.000000
 -0.058824 -0.352941  0.058824      2.000000
  0.000000 -0.294118  0.058824      2.000000
  0.058824 -0.294118  0.058824      2.000000
  0.117647 -0.294118  0.058824      2.000000
  0.176471 -0.294118  0.058824      2.000000
  0.235294 -0.294118  0.058824      2.000000
  0.294118 -0.294118  0.058824      2.000000
  0.352941 -0.294118  0.058824      2.000000
  0.411765 -0.294118  0.058824      2.000000
  0.470588 -0.294118  0.058824      2.000000
 -0.470588 -0.294118  0.058824      2.000000
 -0.411765 -0.294118  0.058824      2.000000
 -0.352941 -0.294118  0.058824      2.000000
 -0.294118 -0.294118  0.058824      2.000000
 -0.235294 -0.294118  0.058824      2.000000
 -0.176471 -0.294118  0.058824      2.000000
 -0.117647 -0.294118  0.058824      2.000000
 -0.058824 -0.294118  0.058824      2.000000
  0.000000 -0.235294  0.058824      2.000000
  0.058824 -0.235294  0.058824      2.000000
  0.117647 -0.235294  0.058824      2.000000
  0.176471 -0.235294  0.058824      2.000000
  0.235294 -0.235294  0.058824      2.000000
  0.294118 -0.235294  0.058824      2.000000
  0.352941 -0.235294  0.058824      2.000000
  0.411765 -0.235294  0.058824      2.000000
  0.470588 -0.235294  0.058824      2.000000
 -0.470588 -0.235294  0.058824      2.000000
 -0.411765 -0.235294  0.058824      2.000000
 -0.352941 -0.235294  0.058824      2.000000
 -0.294118 -0.235294  0.058824      2.000000
 -0.235294 -0.235294  0.058824      2.000000
 -0.176471 -0.235294  0.058824      2.000000
 -0.117647 -0.235294  0.058824      2.000000
 -0.058824 -0.235294  0.058824      2.000000
  0.000000 -0.176471  0.058824      2.000000
  0.058824 -0.176471  0.058824      2.000000
  0.117647 -0.176471  0.058824      2.000000
  0.176471 -0.176471  0.058824      2.000000
  0.235294 -0.176471  0.058824      2.000000
  0.294118 -0.176471  0.058824      2.000000
  0.352941 -0.176471  0.058824      2.000000
  0.411765 -0.176471  0.058824      2.000000
  0.470588 -0.176471  0.058824      2.000000
 -0.470588 -0.176471  0.058824      2.000000
 -0.411765 -0.176471  0.058824      2.000000
 -0.352941 -0.176471  0.058824      2.000000
 -0.294118 -0.176471  0.058824      2.000000
 -0.235294 -0.176471  0.058824      2.000000
 -0.176471 -0.176471  0.058824      2.000000
 -0.117647 -0.176471  0.058824      2.000000
 -0.058824 -0.176471  0.058824      2.000000
  0.000000 -0.117647  0.058824      2.000000
  0.058824 -0.117647  0.058824      2.000000
  0.117647 -0.117647  0.058824      2.000000
  0.176471 -0.117647  0.058824      2.000000
  0.235294 -0.117647  0.058824      2.000000
  0.294118 -0.117647  0.058824      2.000000
  0.352941 -0.117647  0.058824      2.000000
  0.411765 -0.117647  0.058824      2.000000
  0.470588 -0.117647  0.058824      2.000000
 -0.470588 -0.117647  0.058824      2.000000
 -0.411765 -0.117647  0.058824      2.000000
 -0.352941 -0.117647  0.058824      2.000000
 -0.294118 -0.117647  0.058824      2.000000
 -0.235294 -0.117647  0.058824      2.000000
 -0.176471 -0.117647  0.058824      2.000000
 -0.117647 -0.117647  0.058824      2.000000
 -0.058824 -0.117647  0.058824      2.000000
  0.000000 -0.058824  0.058824      2.000000
  0.058824 -0.058824  0.058824      2.000000
  0.117647 -0.058824  0.058824      2.000000
  0.176471 -0.058824  0.058824      2.000000
  0.235294 -0.058824  0.058824      2.000000
  0.294118 -0.058824  0.058824      2.000000
  0.352941 -0.058824  0.058824      2.000000
  0.411765 -0.058824  0.058824      2.000000
  0.470588 -0.058824  0.058824      2.000000
 -0.470588 -0.058824  0.058824      2.000000
 -0.411765 -0.058824  0.058824      2.000000
 -0.352941 -0.058824  0.058824      2.000000
 -0.294118 -0.058824  0.058824      2.000000
 -0.235294 -0.058824  0.058824      2.000000
 -0.176471 -0.058824  0.058824      2.000000
 -0.117647 -0.058824  0.058824      2.000000
 -0.058824 -0.058824  0.058824      2.000000
  0.000000  0.000000  0.117647      2.000000
  0.058824  0.000000  0.117647      2.000000
  0.117647  0.000000  0.117647      2.000000
  0.176471  0.000000  0.117647      2.000000
  0.235294  0.000000  0.117647      2.000000
  0.294118  0.000000  0.117647      2.000000
  0.352941  0.000000  0.117647      2.000000
  0.411765  0.000000  0.117647      2.000000
  0.470588  0.000000  0.117647      2.000000
 -0.470588  0.000000  0.117647      2.000000
 -0.411765  0.000000  0.117647      2.000000
 -0.352941  0.000000  0.117647      2.000000
 -0.294118  0.000000  0.117647      2.000000
 -0.235294  0.000000  0.117647      2.000000
 -0.176471  0.000000  0.117647      2.000000
 -0.117647  0.000000  0.117647      2.000000
 -0.058824  0.000000  0.117647      2.000000
  0.000000  0.058824  0.117647      2.000000
  0.058824  0.058824  0.117647      2.000000
  0.117647  0.058824  0.117647      2.000000
  0.176471  0.058824  0.117647      2.000000
  0.235294  0.058824  0.117647      2.000000
  0.294118  0.058824  0.117647      2.000000
  0.352941  0.058824  0.117647      2.000000
  0.411765  0.058824  0.117647      2.000000
  0.470588  0.058824  0.117647      2.000000
 -0.470588  0.058824  0.117647      2.000000
 -0.411765  0.058824  0.117647      2.000000
 -0.352941  0.058824  0.117647      2.000000
 -0.294118  0.058824  0.117647      2.000000
 -0.235294  0.058824  0.117647      2.000000
 -0.176471  0.058824  0.117647      2.000000
 -0.117647  0.058824  0.117647      2.000000
 -0.058824  0.058824  0.117647      2.000000
  0.000000  0.117647  0.117647      2.000000
  0.058824  0.117647  0.117647      2.000000
  0.117647  0.117647  0.117647      2.000000
  0.176471  0.117647  0.117647      2.000000
  0.235294  0.117647  0.117647      2.000000
  0.294118  0.117647  0.117647      2.000000
  0.352941  0.117647  0.117647      2.000000
  0.411765  0.117647  0.117647      2.000000
  0.470588  0.117647  0.117647      2.000000
 -0.470588  0.117647  0.117647      2.000000
 -0.411765  0.117647  0.117647      2.000000
 -0.352941  0.117647  0.117647      2.000000
 -0.294118  0.117647  0.117647      2.000000
 -0.235294  0.117647  0.117647      2.000000
 -0.176471  0.117647  0.117647      2.000000
 -0.117647  0.117647  0.117647      2.000000
 -0.058824  0.117647  0.117647      2.000000
  0.000000  0.176471  0.117647      2.000000
  0.058824  0.176471  0.117647      2.000000
  0.117647  0.176471  0.117647      2.000000
  0.176471  0.176471  0.117647      2.000000
  0.235294  0.176471  0.117647      2.000000
  0.294118  0.176471  0.117647      2.000000
  0.352941  0.176471  0.117647      2.000000
  0.411765  0.176471  0.117647      2.000000
  0.470588  0.176471  0.117647      2.000000
 -0.470588  0.176471  0.117647      2.000000
 -0.411765  0.176471  0.117647      2.000000
 -0.352941  0.176471  0.117647      2.000000
 -0.294118  0.176471  0.117647      2.000000
 -0.235294  0.176471  0.117647      2.000000
 -0.176471  0.176471  0.117647      2.000000
 -0.117647  0.176471  0.117647      2.000000
 -0.058824  0.176471  0.117647      2.000000
  0.000000  0.235294  0.117647      2.000000
  0.058824  0.235294  0.117647      2.000000
  0.117647  0.235294  0.117647      2.000000
  0.176471  0.235294  0.117647      2.000000
  0.235294  0.235294  0.117647      2.000000
  0.294118  0.235294  0.117647      2.000000
  0.352941  0.235294  0.117647      2.000000
  0.411765  0.235294  0.117647      2.000000
  0.470588  0.235294  0.117647      2.000000
 -0.470588  0.235294  0.117647      2.000000
 -0.411765  0.235294  0.117647      2.000000
 -0.352941  0.235294  0.117647      2.000000
 -0.294118  0.235294  0.117647      2.000000
 -0.235294  0.235294  0.117647      2.000000
 -0.176471  0.235294  0.117647      2.000000
 -0.117647  0.235294  0.117647      2.000000
 -0.058824  0.235294  0.117647      2.000000
  0.000000  0.294118  0.117647      2.000000
  0.058824  0.294118  0.117647      2.000000
  0.117647  0.294118  0.117647      2.000000
  0.176471  0.294118  0.117647      2.000000
  0.235294  0.294118  0.117647      2.000000
  0.294118  0.294118  0.117647      2.000000
  0.352941  0.294118  0.117647      2.000000
  0.411765  0.294118  0.117647      2.000000
  0.470588  0.294118  0.117647      2.000000
 -0.470588  0.294118  0.117647      2.000000
 -0.411765  0.294118  0.117647      2.000000
 -0.352941  0.294118  0.117647      2.000000
 -0.294118  0.294118  0.117647      2.000000
 -0.235294  0.294118  0.117647      2.000000
 -0.176471  0.294118  0.117647      2.000000
 -0.117647  0.294118  0.117647      2.000000
 -0.058824  0.294118  0.117647      2.000000
  0.000000  0.352941  0.117647      2.000000
  0.058824  0.352941  0.117647      2.000000
  0.117647  0.352941  0.117647      2.000000
  0.176471  0.352941  0.117647      2.000000
  0.235294  0.352941  0.117647      2.000000
  0.294118  0.352941  0.117647      2.000000
  0.352941  0.352941  0.117647      2.000000
  0.411765  0.352941  0.117647      2.000000
  0.470588  0.352941  0.117647      2.000000
 -0.470588  0.352941  0.117647      2.000000
 -0.411765  0.352941  0.117647      2.000000
 -0.352941  0.352941  0.117647      2.000000
 -0.294118  0.352941  0.117647      2.000000
 -0.235294  0.352941  0.117647      2.000000
 -0.176471  0.352941  0.117647      2.000000
 -0.117647  0.352941  0.117647      2.000000
 -0.058824  0.352941  0.117647      2.000000
  0.000000  0.411765  0.117647      2.000000
  0.058824  0.411765  0.117647      2.000000
  0.117647  0.411765  0.117647      2.000000
  0.176471  0.411765  0.117647      2.000000
  0.235294  0.411765  0.117647      2.000000
  0.294118  0.411765  0.117647      2.000000
  0.352941  0.411765  0.117647      2.000000
  0.411765  0.411765  0.117647      2.000000
  0.470588  0.411765  0.117647      2.000000
 -0.470588  0.411765  0.117647      2.000000
 -0.411765  0.411765  0.117647      2.000000
 -0.352941  0.411765  0.117647      2.000000
 -0.294118  0.411765  0.117647      2.000000
 -0.235294  0.411765  0.117647      2.000000
 -0.176471  0.411765  0.117647      2.000000
 -0.117647  0.411765  0.117647      2.000000
 -0.058824  0.411765  0.117647      2.000000
  0.000000  0.470588  0.117647      2.000000
  0.058824  0.470588  0.117647      2.000000
  0.117647  0.470588  0.117647      2.000000
  0.176471  0.470588  0.117647      2.000000
  0.235294  0.470588  0.117647      2.000000
  0.294118  0.470588  0.117647      2.000000
  0.352941  0.470588  0.117647      2.000000
  0.411765  0.470588  0.117647      2.000000
  0.470588  0.470588  0.117647      2.000000
 -0.470588  0.470588  0.117647      2.000000
 -0.411765  0.470588  0.117647      2.000000
 -0.352941  0.470588  0.117647      2.000000
 -0.294118  0.470588  0.117647      2.000000
 -0.235294  0.470588  0.117647      2.000000
 -0.176471  0.470588  0.117647      2.000000
 -0.117647  0.470588  0.117647      2.000000
 -0.058824  0.470588  0.117647      2.000000
  0.000000 -0.470588  0.117647      2.000000
  0.058824 -0.470588  0.117647      2.000000
  0.117647 -0.470588  0.117647      2.000000
  0.176471 -0.470588  0.117647      2.000000
  0.235294 -0.470588  0.117647      2.000000
  0.294118 -0.470588  0.117647      2.000000
  0.352941 -0.470588  0.117647      2.000000
  0.411765 -0.470588  0.117647      2.000000
  0.470588 -0.470588  0.117647      2.000000
 -0.470588 -0.470588  0.117647      2.000000
 -0.411765 -0.470588  0.117647      2.000000
 -0.352941 -0.470588  0.117647      2.000000
 -0.294118 -0.470588  0.117647      2.000000
 -0.235294 -0.470588  0.117647      2.000000
 -0.176471 -0.470588  0.117647      2.000000
 -0.117647 -0.470588  0.117647      2.000000
 -0.058824 -0.470588  0.117647      2.000000
  0.000000 -0.411765  0.117647      2.000000
  0.058824 -0.411765  0.117647      2.000000
  0.117647 -0.411765  0.117647      2.000000
  0.176471 -0.411765  0.117647      2.000000
  0.235294 -0.411765  0.117647      2.000000
  0.294118 -0.411765  0.117647      2.000000
  0.352941 -0.411765  0.117647      2.000000
  0.411765 -0.411765  0.117647      2.000000
  0.470588 -0.411765  0.117647      2.000000
 -0.470588 -0.411765  0.117647      2.000000
 -0.411765 -0.411765  0.117647      2.000000
 -0.352941 -0.411765  0.117647      2.000000
 -0.294118 -0.411765  0.117647      2.000000
 -0.235294 -0.411765  0.117647      2.000000
 -0.176471 -0.411765  0.117647      2.000000
 -0.117647 -0.411765  0.117647      2.000000
 -0.058824 -0.411765  0.117647      2.000000
  0.000000 -0.352941  0.117647      2.000000
  0.058824 -0.352941  0.117647      2.000000
  0.117647 -0.352941  0.117647      2.000000
  0.176471 -0.352941  0.117647      2.000000
  0.235294 -0.352941  0.117647      2.000000
  0.294118 -0.352941  0.117647      2.000000
  0.352941 -0.352941  0.117647      2.000000
  0.411765 -0.352941  0.117647      2.000000
  0.470588 -0.352941  0.117647      2.000000
 -0.470588 -0.352941  0.117647      2.000000
 -0.411765 -0.352941  0.117647      2.000000
 -0.352941 -0.352941  0.117647      2.000000
 -0.294118 -0.352941  0.117647      2.000000
 -0.235294 -0.352941  0.117647      2.000000
 -0.176471 -0.352941  0.117647      2.000000
 -0.117647 -0.352941  0.117647      2.000000
 -0.058824 -0.352941  0.117647      2.000000
  0.000000 -0.294118  0.117647      2.000000
  0.058824 -0.294118  0.117647      2.000000
  0.117647 -0.294118  0.117647      2.000000
  0.176471 -0.294118  0.117647      2.000000
  0.235294 -0.294118  0.117647      2.000000
  0.294118 -0.294118  0.117647      2.000000
  0.352941 -0.294118  0.117647      2.000000
  0.411765 -0.294118  0.117647      2.000000
  0.470588 -0.294118  0.117647      2.000000
 -0.470588 -0.294118  0.117647      2.000000
 -0.411765 -0.294118  0.117647      2.000000
 -0.352941 -0.294118  0.117647      2.000000
 -0.294118 -0.294118  0.117647      2.000000
 -0.235294 -0.294118  0.117647      2.000000
 -0.176471 -0.294118  0.117647      2.000000
 -0.117647 -0.294118  0.117647      2.000000
 -0.058824 -0.294118  0.117647      2.000000
  0.000000 -0.235294  0.117647      2.000000
  0.058824 -0.235294  0.117647      2.000000
  0.117647 -0.235294  0.117647      2.000000
  0.176471 -0.235294  0.117647      2.000000
  0.235294 -0.235294  0.117647      2.000000
  0.294118 -0.235294  0.117647      2.000000
  0.352941 -0.235294  0.117647      2.000000
  0.411765 -0.235294  0.117647      2.000000
  0.470588 -0.235294  0.117647      2.000000
 -0.470588 -0.235294  0.117647      2.000000
 -0.411765 -0.235294  0.117647      2.000000
 -0.352941 -0.235294  0.117647      2.000000
 -0.294118 -0.235294  0.117647      2.000000
 -0.235294 -0.235294  0.117647      2.000000
 -0.176471 -0.235294  0.117647      2.000000
 -0.117647 -0.235294  0.117647      2.000000
 -0.058824 -0.235294  0.117647      2.000000
  0.000000 -0.176471  0.117647      2.000000
  0.058824 -0.176471  0.117647      2.000000
  0.117647 -0.176471  0.117647      2.000000
  0.176471 -0.176471  0.117647      2.000000
  0.235294 -0.176471  0.117647      2.000000
  0.294118 -0.176471  0.117647      2.000000
  0.352941 -0.176471  0.117647      2.000000
  0.411765 -0.176471  0.117647      2.000000
  0.470588 -0.176471  0.117647      2.000000
 -0.470588 -0.176471  0.117647      2.000000
 -0.411765 -0.176471  0.117647      2.000000
 -0.352941 -0.176471  0.117647      2.000000
 -0.294118 -0.176471  0.117647      2.000000
 -0.235294 -0.176471  0.117647      2.000000
 -0.176471 -0.176471  0.117647      2.000000
 -0.117647 -0.176471  0.117647      2.000000
 -0.058824 -0.176471  0.117647      2.000000
  0.000000 -0.117647  0.117647      2.000000
  0.058824 -0.117647  0.117647      2.000000
  0.117647 -0.117647  0.117647      2.000000
  0.176471 -0.117647  0.117647      2.000000
  0.235294 -0.117647  0.117647      2.000000
  0.294118 -0.117647  0.117647      2.000000
  0.352941 -0.117647  0.117647      2.000000
  0.411765 -0.117647  0.117647      2.000000
  0.470588 -0.117647  0.117647      2.000000
 -0.470588 -0.117647  0.117647      2.000000
 -0.411765 -0.117647  0.117647      2.000000
 -0.352941 -0.117647  0.117647      2.000000
 -0.294118 -0.117647  0.117647      2.000000
 -0.235294 -0.117647  0.117647      2.000000
 -0.176471 -0.117647  0.117647      2.000000
 -0.117647 -0.117647  0.117647      2.000000
 -0.058824 -0.117647  0.117647      2.000000
  0.000000 -0.058824  0.117647      2.000000
  0.058824 -0.058824  0.117647      2.000000
  0.117647 -0.058824  0.117647      2.000000
  0.176471 -0.058824  0.117647      2.000000
  0.235294 -0.058824  0.117647      2.000000
  0.294118 -0.058824  0.117647      2.000000
  0.352941 -0.058824  0.117647      2.000000
  0.411765 -0.058824  0.117647      2.000000
  0.470588 -0.058824  0.117647      2.000000
 -0.470588 -0.058824  0.117647      2.000000
 -0.411765 -0.058824  0.117647      2.000000
 -0.352941 -0.058824  0.117647      2.000000
 -0.294118 -0.058824  0.117647      2.000000
 -0.235294 -0.058824  0.117647      2.000000
 -0.176471 -0.058824  0.117647      2.000000
 -0.117647 -0.058824  0.117647      2.000000
 -0.058824 -0.058824  0.117647      2.000000
  0.000000  0.000000  0.176471      2.000000
  0.058824  0.000000  0.176471      2.000000
  0.117647  0.000000  0.176471      2.000000
  0.176471  0.000000  0.176471      2.000000
  0.235294  0.000000  0.176471      2.000000
  0.294118  0.000000  0.176471      2.000000
  0.352941  0.000000  0.176471      2.000000
  0.411765  0.000000  0.176471      2.000000
  0.470588  0.000000  0.176471      2.000000
 -0.470588  0.000000  0.176471      2.000000
 -0.411765  0.000000  0.176471      2.000000
 -0.352941  0.000000  0.176471      2.000000
 -0.294118  0.000000  0.176471      2.000000
 -0.235294  0.000000  0.176471      2.000000
 -0.176471  0.000000  0.176471      2.000000
 -0.117647  0.000000  0.176471      2.000000
 -0.058824  0.000000  0.176471      2.000000
  0.000000  0.058824  0.176471      2.000000
  0.058824  0.058824  0.176471      2.000000
  0.117647  0.058824  0.176471      2.000000
  0.176471  0.058824  0.176471      2.000000
  0.235294  0.058824  0.176471      2.000000
  0.294118  0.058824  0.176471      2.000000
  0.352941  0.058824  0.176471      2.000000
  0.411765  0.058824  0.176471      2.000000
  0.470588  0.058824  0.176471      2.000000
 -0.470588  0.058824  0.176471      2.000000
 -0.411765  0.058824  0.176471      2.000000
 -0.352941  0.058824  0.176471      2.000000
 -0.294118  0.058824  0.176471      2.000000
 -0.235294  0.058824  0.176471      2.000000
 -0.176471  0.058824  0.176471      2.000000
 -0.117647  0.058824  0.176471      2.000000
 -0.058824  0.058824  0.176471      2.000000
  0.000000  0.117647  0.176471      2.000000
  0.058824  0.117647  0.176471      2.000000
  0.117647  0.117647  0.176471      2.000000
  0.176471  0.117647  0.176471      2.000000
  0.235294  0.117647  0.176471      2.000000
  0.294118  0.117647  0.176471      2.000000
  0.352941  0.117647  0.176471      2.000000
  0.411765  0.117647  0.176471      2.000000
  0.470588  0.117647  0.176471      2.000000
 -0.470588  0.117647  0.176471      2.000000
 -0.411765  0.117647  0.176471      2.000000
 -0.352941  0.117647  0.176471      2.000000
 -0.294118  0.117647  0.176471      2.000000
 -0.235294  0.117647  0.176471      2.000000
 -0.176471  0.117647  0.176471      2.000000
 -0.117647  0.117647  0.176471      2.000000
 -0.058824  0.117647  0.176471      2.000000
  0.000000  0.176471  0.176471      2.000000
  0.058824  0.176471  0.176471      2.000000
  0.117647  0.176471  0.176471      2.000000
  0.176471  0.176471  0.176471      2.000000
  0.235294  0.176471  0.176471      2.000000
  0.294118  0.176471  0.176471      2.000000
  0.352941  0.176471  0.176471      2.000000
  0.411765  0.176471  0.176471      2.000000
  0.470588  0.176471  0.176471      2.000000
 -0.470588  0.176471  0.176471      2.000000
 -0.411765  0.176471  0.176471      2.000000
 -0.352941  0.176471  0.176471      2.000000
 -0.294118  0.176471  0.176471      2.000000
 -0.235294  0.176471  0.176471      2.000000
 -0.176471  0.176471  0.176471      2.000000
 -0.117647  0.176471  0.176471      2.000000
 -0.058824  0.176471  0.176471      2.000000
  0.000000  0.235294  0.176471      2.000000
  0.058824  0.235294  0.176471      2.000000
  0.117647  0.235294  0.176471      2.000000
  0.176471  0.235294  0.176471      2.000000
  0.235294  0.235294  0.176471      2.000000
  0.294118  0.235294  0.176471      2.000000
  0.352941  0.235294  0.176471      2.000000
  0.411765  0.235294  0.176471      2.000000
  0.470588  0.235294  0.176471      2.000000
 -0.470588  0.235294  0.176471      2.000000
 -0.411765  0.235294  0.176471      2.000000
 -0.352941  0.235294  0.176471      2.000000
 -0.294118  0.235294  0.176471      2.000000
 -0.235294  0.235294  0.176471      2.000000
 -0.176471  0.235294  0.176471      2.000000
 -0.117647  0.235294  0.176471      2.000000
 -0.058824  0.235294  0.176471      2.000000
  0.000000  0.294118  0.176471      2.000000
  0.058824  0.294118  0.176471      2.000000
  0.117647  0.294118  0.176471      2.000000
  0.176471  0.294118  0.176471      2.000000
  0.235294  0.294118  0.176471      2.000000
  0.294118  0.294118  0.176471      2.000000
  0.352941  0.294118  0.176471      2.000000
  0.411765  0.294118  0.176471      2.000000
  0.470588  0.294118  0.176471      2.000000
 -0.470588  0.294118  0.176471      2.000000
 -0.411765  0.294118  0.176471      2.000000
 -0.352941  0.294118  0.176471      2.000000
 -0.294118  0.294118  0.176471      2.000000
 -0.235294  0.294118  0.176471      2.000000
 -0.176471  0.294118  0.176471      2.000000
 -0.117647  0.294118  0.176471      2.000000
 -0.058824  0.294118  0.176471      2.000000
  0.000000  0.352941  0.176471      2.000000
  0.058824  0.352941  0.176471      2.000000
  0.117647  0.352941  0.176471      2.000000
  0.176471  0.352941  0.176471      2.000000
  0.235294  0.352941  0.176471      2.000000
  0.294118  0.352941  0.176471      2.000000
  0.352941  0.352941  0.176471      2.000000
  0.411765  0.352941  0.176471      2.000000
  0.470588  0.352941  0.176471      2.000000
 -0.470588  0.352941  0.176471      2.000000
 -0.411765  0.352941  0.176471      2.000000
 -0.352941  0.352941  0.176471      2.000000
 -0.294118  0.352941  0.176471      2.000000
 -0.235294  0.352941  0.176471      2.000000
 -0.176471  0.352941  0.176471      2.000000
 -0.117647  0.352941  0.176471      2.000000
 -0.058824  0.352941  0.176471      2.000000
  0.000000  0.411765  0.176471      2.000000
  0.058824  0.411765  0.176471      2.000000
  0.117647  0.411765  0.176471      2.000000
  0.176471  0.411765  0.176471      2.000000
  0.235294  0.411765  0.176471      2.000000
  0.294118  0.411765  0.176471      2.000000
  0.352941  0.411765  0.176471      2.000000
  0.411765  0.411765  0.176471      2.000000
  0.470588  0.411765  0.176471      2.000000
 -0.470588  0.411765  0.176471      2.000000
 -0.411765  0.411765  0.176471      2.000000
 -0.352941  0.411765  0.176471      2.000000
 -0.294118  0.411765  0.176471      2.000000
 -0.235294  0.411765  0.176471      2.000000
 -0.176471  0.411765  0.176471      2.000000
 -0.117647  0.411765  0.176471      2.000000
 -0.058824  0.411765  0.176471      2.000000
  0.000000  0.470588  0.176471      2.000000
  0.058824  0.470588  0.176471      2.000000
  0.117647  0.470588  0.176471      2.000000
  0.176471  0.470588  0.176471      2.000000
  0.235294  0.470588  0.176471      2.000000
  0.294118  0.470588  0.176471      2.000000
  0.352941  0.470588  0.176471      2.000000
  0.411765  0.470588  0.176471      2.000000
  0.470588  0.470588  0.176471      2.000000
 -0.470588  0.470588  0.176471      2.000000
 -0.411765  0.470588  0.176471      2.000000
 -0.352941  0.470588  0.176471      2.000000
 -0.294118  0.470588  0.176471      2.000000
 -0.235294  0.470588  0.176471      2.000000
 -0.176471  0.470588  0.176471      2.000000
 -0.117647  0.470588  0.176471      2.000000
 -0.058824  0.470588  0.176471      2.000000
  0.000000 -0.470588  0.176471      2.000000
  0.058824 -0.470588  0.176471      2.000000
  0.117647 -0.470588  0.176471      2.000000
  0.176471 -0.470588  0.176471      2.000000
  0.235294 -0.470588  0.176471      2.000000
  0.294118 -0.470588  0.176471      2.000000
  0.352941 -0.470588  0.176471      2.000000
  0.411765 -0.470588  0.176471      2.000000
  0.470588 -0.470588  0.176471      2.000000
 -0.470588 -0.470588  0.176471      2.000000
 -0.411765 -0.470588  0.176471      2.000000
 -0.352941 -0.470588  0.176471      2.000000
 -0.294118 -0.470588  0.176471      2.000000
 -0.235294 -0.470588  0.176471      2.000000
 -0.176471 -0.470588  0.176471      2.000000
 -0.117647 -0.470588  0.176471      2.000000
 -0.058824 -0.470588  0.176471      2.000000
  0.000000 -0.411765  0.176471      2.000000
  0.058824 -0.411765  0.176471      2.000000
  0.117647 -0.411765  0.176471      2.000000
  0.176471 -0.411765  0.176471      2.000000
  0.235294 -0.411765  0.176471      2.000000
  0.294118 -0.411765  0.176471      2.000000
  0.352941 -0.411765  0.176471      2.000000
  0.411765 -0.411765  0.176471      2.000000
  0.470588 -0.411765  0.176471      2.000000
 -0.470588 -0.411765  0.176471      2.000000
 -0.411765 -0.411765  0.176471      2.000000
 -0.352941 -0.411765  0.176471      2.000000
 -0.294118 -0.411765  0.176471      2.000000
 -0.235294 -0.411765  0.176471      2.000000
 -0.176471 -0.411765  0.176471      2.000000
 -0.117647 -0.411765  0.176471      2.000000
 -0.058824 -0.411765  0.176471      2.000000
  0.000000 -0.352941  0.176471      2.000000
  0.058824 -0.352941  0.176471      2.000000
  0.117647 -0.352941  0.176471      2.000000
  0.176471 -0.352941  0.176471      2.000000
  0.235294 -0.352941  0.176471      2.000000
  0.294118 -0.352941  0.176471      2.000000
  0.352941 -0.352941  0.176471      2.000000
  0.411765 -0.352941  0.176471      2.000000
  0.470588 -0.352941  0.176471      2.000000
 -0.470588 -0.352941  0.176471      2.000000
 -0.411765 -0.352941  0.176471      2.000000
 -0.352941 -0.352941  0.176471      2.000000
 -0.294118 -0.352941  0.176471      2.000000
 -0.235294 -0.352941  0.176471      2.000000
 -0.176471 -0.352941  0.176471      2.000000
 -0.117647 -0.352941  0.176471      2.000000
 -0.058824 -0.352941  0.176471      2.000000
  0.000000 -0.294118  0.176471      2.000000
  0.058824 -0.294118  0.176471      2.000000
  0.117647 -0.294118  0.176471      2.000000
  0.176471 -0.294118  0.176471      2.000000
  0.235294 -0.294118  0.176471      2.000000
  0.294118 -0.294118  0.176471      2.000000
  0.352941 -0.294118  0.176471      2.000000
  0.411765 -0.294118  0.176471      2.000000
  0.470588 -0.294118  0.176471      2.000000
 -0.470588 -0.294118  0.176471      2.000000
 -0.411765 -0.294118  0.176471      2.000000
 -0.352941 -0.294118  0.176471      2.000000
 -0.294118 -0.294118  0.176471      2.000000
 -0.235294 -0.294118  0.176471      2.000000
 -0.176471 -0.294118  0.176471      2.000000
 -0.117647 -0.294118  0.176471      2.000000
 -0.058824 -0.294118  0.176471      2.000000
  0.000000 -0.235294  0.176471      2.000000
  0.058824 -0.235294  0.176471      2.000000
  0.117647 -0.235294  0.176471      2.000000
  0.176471 -0.235294  0.176471      2.000000
  0.235294 -0.235294  0.176471      2.000000
  0.294118 -0.235294  0.176471      2.000000
  0.352941 -0.235294  0.176471      2.000000
  0.411765 -0.235294  0.176471      2.000000
  0.470588 -0.235294  0.176471      2.000000
 -0.470588 -0.235294  0.176471      2.000000
 -0.411765 -0.235294  0.176471      2.000000
 -0.352941 -0.235294  0.176471      2.000000
 -0.294118 -0.235294  0.176471      2.000000
 -0.235294 -0.235294  0.176471      2.000000
 -0.176471 -0.235294  0.176471      2.000000
 -0.117647 -0.235294  0.176471      2.000000
 -0.058824 -0.235294  0.176471      2.000000
  0.000000 -0.176471  0.176471      2.000000
  0.058824 -0.176471  0.176471      2.000000
  0.117647 -0.176471  0.176471      2.000000
  0.176471 -0.176471  0.176471      2.000000
  0.235294 -0.176471  0.176471      2.000000
  0.294118 -0.176471  0.176471      2.000000
  0.352941 -0.176471  0.176471      2.000000
  0.411765 -0.176471  0.176471      2.000000
  0.470588 -0.176471  0.176471      2.000000
 -0.470588 -0.176471  0.176471      2.000000
 -0.411765 -0.176471  0.176471      2.000000
 -0.352941 -0.176471  0.176471      2.000000
 -0.294118 -0.176471  0.176471      2.000000
 -0.235294 -0.176471  0.176471      2.000000
 -0.176471 -0.176471  0.176471      2.000000
 -0.117647 -0.176471  0.176471      2.000000
 -0.058824 -0.176471  0.176471      2.000000
  0.000000 -0.117647  0.176471      2.000000
  0.058824 -0.117647  0.176471      2.000000
  0.117647 -0.117647  0.176471      2.000000
  0.176471 -0.117647  0.176471      2.000000
  0.235294 -0.117647  0.176471      2.000000
  0.294118 -0.117647  0.176471      2.000000
  0.352941 -0.117647  0.176471      2.000000
  0.411765 -0.117647  0.176471      2.000000
  0.470588 -0.117647  0.176471      2.000000
 -0.470588 -0.117647  0.176471      2.000000
 -0.411765 -0.117647  0.176471      2.000000
 -0.352941 -0.117647  0.176471      2.000000
 -0.294118 -0.117647  0.176471      2.000000
 -0.235294 -0.117647  0.176471      2.000000
 -0.176471 -0.117647  0.176471      2.000000
 -0.117647 -0.117647  0.176471      2.000000
 -0.058824 -0.117647  0.176471      2.000000
  0.000000 -0.058824  0.176471      2.000000
  0.058824 -0.058824  0.176471      2.000000
  0.117647 -0.058824  0.176471      2.000000
  0.176471 -0.058824  0.176471      2.000000
  0.235294 -0.058824  0.176471      2.000000
  0.294118 -0.058824  0.176471      2.000000
  0.352941 -0.058824  0.176471      2.000000
  0.411765 -0.058824  0.176471      2.000000
  0.470588 -0.058824  0.176471      2.000000
 -0.470588 -0.058824  0.176471      2.000000
 -0.411765 -0.058824  0.176471      2.000000
 -0.352941 -0.058824  0.176471      2.000000
 -0.294118 -0.058824  0.176471      2.000000
 -0.235294 -0.058824  0.176471      2.000000
 -0.176471 -0.058824  0.176471      2.000000
 -0.117647 -0.058824  0.176471      2.000000
 -0.058824 -0.058824  0.176471      2.000000
  0.000000  0.000000  0.235294      2.000000
  0.058824  0.000000  0.235294      2.000000
  0.117647  0.000000  0.235294      2.000000
  0.176471  0.000000  0.235294      2.000000
  0.235294  0.000000  0.235294      2.000000
  0.294118  0.000000  0.235294      2.000000
  0.352941  0.000000  0.235294      2.000000
  0.411765  0.000000  0.235294      2.000000
  0.470588  0.000000  0.235294      2.000000
 -0.470588  0.000000  0.235294      2.000000
 -0.411765  0.000000  0.235294      2.000000
 -0.352941  0.000000  0.235294      2.000000
 -0.294118  0.000000  0.235294      2.000000
 -0.235294  0.000000  0.235294      2.000000
 -0.176471  0.000000  0.235294      2.000000
 -0.117647  0.000000  0.235294      2.000000
 -0.058824  0.000000  0.235294      2.000000
  0.000000  0.058824  0.235294      2.000000
  0.058824  0.058824  0.235294      2.000000
  0.117647  0.058824  0.235294      2.000000
  0.176471  0.058824  0.235294      2.000000
  0.235294  0.058824  0.235294      2.000000
  0.294118  0.058824  0.235294      2.000000
  0.352941  0.058824  0.235294      2.000000
  0.411765  0.058824  0.235294      2.000000
  0.470588  0.058824  0.235294      2.000000
 -0.470588  0.058824  0.235294      2.000000
 -0.411765  0.058824  0.235294      2.000000
 -0.352941  0.058824  0.235294      2.000000
 -0.294118  0.058824  0.235294      2.000000
 -0.235294  0.058824  0.235294      2.000000
 -0.176471  0.058824  0.235294      2.000000
 -0.117647  0.058824  0.235294      2.000000
 -0.058824  0.058824  0.235294      2.000000
  0.000000  0.117647  0.235294      2.000000
  0.058824  0.117647  0.235294      2.000000
  0.117647  0.117647  0.235294      2.000000
  0.176471  0.117647  0.235294      2.000000
  0.235294  0.117647  0.235294      2.000000
  0.294118  0.117647  0.235294      2.000000
  0.352941  0.117647  0.235294      2.000000
  0.411765  0.117647  0.235294      2.000000
  0.470588  0.117647  0.235294      2.000000
 -0.470588  0.117647  0.235294      2.000000
 -0.411765  0.117647  0.235294      2.000000
 -0.352941  0.117647  0.235294      2.000000
 -0.294118  0.117647  0.235294      2.000000
 -0.235294  0.117647  0.235294      2.000000
 -0.176471  0.117647  0.235294      2.000000
 -0.117647  0.117647  0.235294      2.000000
 -0.058824  0.117647  0.235294      2.000000
  0.000000  0.176471  0.235294      2.000000
  0.058824  0.176471  0.235294      2.000000
  0.117647  0.176471  0.235294      2.000000
  0.176471  0.176471  0.235294      2.000000
  0.235294  0.176471  0.235294      2.000000
  0.294118  0.176471  0.235294      2.000000
  0.352941  0.176471  0.235294      2.000000
  0.411765  0.176471  0.235294      2.000000
  0.470588  0.176471  0.235294      2.000000
 -0.470588  0.176471  0.235294      2.000000
 -0.411765  0.176471  0.235294      2.000000
 -0.352941  0.176471  0.235294      2.000000
 -0.294118  0.176471  0.235294      2.000000
 -0.235294  0.176471  0.235294      2.000000
 -0.176471  0.176471  0.235294      2.000000
 -0.117647  0.176471  0.235294      2.000000
 -0.058824  0.176471  0.235294      2.000000
  0.000000  0.235294  0.235294      2.000000
  0.058824  0.235294  0.235294      2.000000
  0.117647  0.235294  0.235294      2.000000
  0.176471  0.235294  0.235294      2.000000
  0.235294  0.235294  0.235294      2.000000
  0.294118  0.235294  0.235294      2.000000
  0.352941  0.235294  0.235294      2.000000
  0.411765  0.235294  0.235294      2.000000
  0.470588  0.235294  0.235294      2.000000
 -0.470588  0.235294  0.235294      2.000000
 -0.411765  0.235294  0.235294      2.000000
 -0.352941  0.235294  0.235294      2.000000
 -0.294118  0.235294  0.235294      2.000000
 -0.235294  0.235294  0.235294      2.000000
 -0.176471  0.235294  0.235294      2.000000
 -0.117647  0.235294  0.235294      2.000000
 -0.058824  0.235294  0.235294      2.000000
  0.000000  0.294118  0.235294      2.000000
  0.058824  0.294118  0.235294      2.000000
  0.117647  0.294118  0.235294      2.000000
  0.176471  0.294118  0.235294      2.000000
  0.235294  0.294118  0.235294      2.000000
  0.294118  0.294118  0.235294      2.000000
  0.352941  0.294118  0.235294      2.000000
  0.411765  0.294118  0.235294      2.000000
  0.470588  0.294118  0.235294      2.000000
 -0.470588  0.294118  0.235294      2.000000
 -0.411765  0.294118  0.235294      2.000000
 -0.352941  0.294118  0.235294      2.000000
 -0.294118  0.294118  0.235294      2.000000
 -0.235294  0.294118  0.235294      2.000000
 -0.176471  0.294118  0.235294      2.000000
 -0.117647  0.294118  0.235294      2.000000
 -0.058824  0.294118  0.235294      2.000000
  0.000000  0.352941  0.235294      2.000000
  0.058824  0.352941  0.235294      2.000000
  0.117647  0.352941  0.235294      2.000000
  0.176471  0.352941  0.235294      2.000000
  0.235294  0.352941  0.235294      2.000000
  0.294118  0.352941  0.235294      2.000000
  0.352941  0.352941  0.235294      2.000000
  0.411765  0.352941  0.235294      2.000000
  0.470588  0.352941  0.235294      2.000000
 -0.470588  0.352941  0.235294      2.000000
 -0.411765  0.352941  0.235294      2.000000
 -0.352941  0.352941  0.235294      2.000000
 -0.294118  0.352941  0.235294      2.000000
 -0.235294  0.352941  0.235294      2.000000
 -0.176471  0.352941  0.235294      2.000000
 -0.117647  0.352941  0.235294      2.000000
 -0.058824  0.352941  0.235294      2.000000
  0.000000  0.411765  0.235294      2.000000
  0.058824  0.411765  0.235294      2.000000
  0.117647  0.411765  0.235294      2.000000
  0.176471  0.411765  0.235294      2.000000
  0.235294  0.411765  0.235294      2.000000
  0.294118  0.411765  0.235294      2.000000
  0.352941  0.411765  0.235294      2.000000
  0.411765  0.411765  0.235294      2.000000
  0.470588  0.411765  0.235294      2.000000
 -0.470588  0.411765  0.235294      2.000000
 -0.411765  0.411765  0.235294      2.000000
 -0.352941  0.411765  0.235294      2.000000
 -0.294118  0.411765  0.235294      2.000000
 -0.235294  0.411765  0.235294      2.000000
 -0.176471  0.411765  0.235294      2.000000
 -0.117647  0.411765  0.235294      2.000000
 -0.058824  0.411765  0.235294      2.000000
  0.000000  0.470588  0.235294      2.000000
  0.058824  0.470588  0.235294      2.000000
  0.117647  0.470588  0.235294      2.000000
  0.176471  0.470588  0.235294      2.000000
  0.235294  0.470588  0.235294      2.000000
  0.294118  0.470588  0.235294      2.000000
  0.352941  0.470588  0.235294      2.000000
  0.411765  0.470588  0.235294      2.000000
  0.470588  0.470588  0.235294      2.000000
 -0.470588  0.470588  0.235294      2.000000
 -0.411765  0.470588  0.235294      2.000000
 -0.352941  0.470588  0.235294      2.000000
 -0.294118  0.470588  0.235294      2.000000
 -0.235294  0.470588  0.235294      2.000000
 -0.176471  0.470588  0.235294      2.000000
 -0.117647  0.470588  0.235294      2.000000
 -0.058824  0.470588  0.235294      2.000000
  0.000000 -0.470588  0.235294      2.000000
  0.058824 -0.470588  0.235294      2.000000
  0.117647 -0.470588  0.235294      2.000000
  0.176471 -0.470588  0.235294      2.000000
  0.235294 -0.470588  0.235294      2.000000
  0.294118 -0.470588  0.235294      2.000000
  0.352941 -0.470588  0.235294      2.000000
  0.411765 -0.470588  0.235294      2.000000
  0.470588 -0.470588  0.235294      2.000000
 -0.470588 -0.470588  0.235294      2.000000
 -0.411765 -0.470588  0.235294      2.000000
 -0.352941 -0.470588  0.235294      2.000000
 -0.294118 -0.470588  0.235294      2.000000
 -0.235294 -0.470588  0.235294      2.000000
 -0.176471 -0.470588  0.235294      2.000000
 -0.117647 -0.470588  0.235294      2.000000
 -0.058824 -0.470588  0.235294      2.000000
  0.000000 -0.411765  0.235294      2.000000
  0.058824 -0.411765  0.235294      2.000000
  0.117647 -0.411765  0.235294      2.000000
  0.176471 -0.411765  0.235294      2.000000
  0.235294 -0.411765  0.235294      2.000000
  0.294118 -0.411765  0.235294      2.000000
  0.352941 -0.411765  0.235294      2.000000
  0.411765 -0.411765  0.235294      2.000000
  0.470588 -0.411765  0.235294      2.000000
 -0.470588 -0.411765  0.235294      2.000000
 -0.411765 -0.411765  0.235294      2.000000
 -0.352941 -0.411765  0.235294      2.000000
 -0.294118 -0.411765  0.235294      2.000000
 -0.235294 -0.411765  0.235294      2.000000
 -0.176471 -0.411765  0.235294      2.000000
 -0.117647 -0.411765  0.235294      2.000000
 -0.058824 -0.411765  0.235294      2.000000
  0.000000 -0.352941  0.235294      2.000000
  0.058824 -0.352941  0.235294      2.000000
  0.117647 -0.352941  0.235294      2.000000
  0.176471 -0.352941  0.235294      2.000000
  0.235294 -0.352941  0.235294      2.000000
  0.294118 -0.352941  0.235294      2.000000
  0.352941 -0.352941  0.235294      2.000000
  0.411765 -0.352941  0.235294      2.000000
  0.470588 -0.352941  0.235294      2.000000
 -0.470588 -0.352941  0.235294      2.000000
 -0.411765 -0.352941  0.235294      2.000000
 -0.352941 -0.352941  0.235294      2.000000
 -0.294118 -0.352941  0.235294      2.000000
 -0.235294 -0.352941  0.235294      2.000000
 -0.176471 -0.352941  0.235294      2.000000
 -0.117647 -0.352941  0.235294      2.000000
 -0.058824 -0.352941  0.235294      2.000000
  0.000000 -0.294118  0.235294      2.000000
  0.058824 -0.294118  0.235294      2.000000
  0.117647 -0.294118  0.235294      2.000000
  0.176471 -0.294118  0.235294      2.000000
  0.235294 -0.294118  0.235294      2.000000
  0.294118 -0.294118  0.235294      2.000000
  0.352941 -0.294118  0.235294      2.000000
  0.411765 -0.294118  0.235294      2.000000
  0.470588 -0.294118  0.235294      2.000000
 -0.470588 -0.294118  0.235294      2.000000
 -0.411765 -0.294118  0.235294      2.000000
 -0.352941 -0.294118  0.235294      2.000000
 -0.294118 -0.294118  0.235294      2.000000
 -0.235294 -0.294118  0.235294      2.000000
 -0.176471 -0.294118  0.235294      2.000000
 -0.117647 -0.294118  0.235294      2.000000
 -0.058824 -0.294118  0.235294      2.000000
  0.000000 -0.235294  0.235294      2.000000
  0.058824 -0.235294  0.235294      2.000000
  0.117647 -0.235294  0.235294      2.000000
  0.176471 -0.235294  0.235294      2.000000
  0.235294 -0.235294  0.235294      2.000000
  0.294118 -0.235294  0.235294      2.000000
  0.352941 -0.235294  0.235294      2.000000
  0.411765 -0.235294  0.235294      2.000000
  0.470588 -0.235294  0.235294      2.000000
 -0.470588 -0.235294  0.235294      2.000000
 -0.411765 -0.235294  0.235294      2.000000
 -0.352941 -0.235294  0.235294      2.000000
 -0.294118 -0.235294  0.235294      2.000000
 -0.235294 -0.235294  0.235294      2.000000
 -0.176471 -0.235294  0.235294      2.000000
 -0.117647 -0.235294  0.235294      2.000000
 -0.058824 -0.235294  0.235294      2.000000
  0.000000 -0.176471  0.235294      2.000000
  0.058824 -0.176471  0.235294      2.000000
  0.117647 -0.176471  0.235294      2.000000
  0.176471 -0.176471  0.235294      2.000000
  0.235294 -0.176471  0.235294      2.000000
  0.294118 -0.176471  0.235294      2.000000
  0.352941 -0.176471  0.235294      2.000000
  0.411765 -0.176471  0.235294      2.000000
  0.470588 -0.176471  0.235294      2.000000
 -0.470588 -0.176471  0.235294      2.000000
 -0.411765 -0.176471  0.235294      2.000000
 -0.352941 -0.176471  0.235294      2.000000
 -0.294118 -0.176471  0.235294      2.000000
 -0.235294 -0.176471  0.235294      2.000000
 -0.176471 -0.176471  0.235294      2.000000
 -0.117647 -0.176471  0.235294      2.000000
 -0.058824 -0.176471  0.235294      2.000000
  0.000000 -0.117647  0.235294      2.000000
  0.058824 -0.117647  0.235294      2.000000
  0.117647 -0.117647  0.235294      2.000000
  0.176471 -0.117647  0.235294      2.000000
  0.235294 -0.117647  0.235294      2.000000
  0.294118 -0.117647  0.235294      2.000000
  0.352941 -0.117647  0.235294      2.000000
  0.411765 -0.117647  0.235294      2.000000
  0.470588 -0.117647  0.235294      2.000000
 -0.470588 -0.117647  0.235294      2.000000
 -0.411765 -0.117647  0.235294      2.000000
 -0.352941 -0.117647  0.235294      2.000000
 -0.294118 -0.117647  0.235294      2.000000
 -0.235294 -0.117647  0.235294      2.000000
 -0.176471 -0.117647  0.235294      2.000000
 -0.117647 -0.117647  0.235294      2.000000
 -0.058824 -0.117647  0.235294      2.000000
  0.000000 -0.058824  0.235294      2.000000
  0.058824 -0.058824  0.235294      2.000000
  0.117647 -0.058824  0.235294      2.000000
  0.176471 -0.058824  0.235294      2.000000
  0.235294 -0.058824  0.235294      2.000000
  0.294118 -0.058824  0.235294      2.000000
  0.352941 -0.058824  0.235294      2.000000
  0.411765 -0.058824  0.235294      2.000000
  0.470588 -0.058824  0.235294      2.000000
 -0.470588 -0.058824  0.235294      2.000000
 -0.411765 -0.058824  0.235294      2.000000
 -0.352941 -0.058824  0.235294      2.000000
 -0.294118 -0.058824  0.235294      2.000000
 -0.235294 -0.058824  0.235294      2.000000
 -0.176471 -0.058824  0.235294      2.000000
 -0.117647 -0.058824  0.235294      2.000000
 -0.058824 -0.058824  0.235294      2.000000
  0.000000  0.000000  0.294118      2.000000
  0.058824  0.000000  0.294118      2.000000
  0.117647  0.000000  0.294118      2.000000
  0.176471  0.000000  0.294118      2.000000
  0.235294  0.000000  0.294118      2.000000
  0.294118  0.000000  0.294118      2.000000
  0.352941  0.000000  0.294118      2.000000
  0.411765  0.000000  0.294118      2.000000
  0.470588  0.000000  0.294118      2.000000
 -0.470588  0.000000  0.294118      2.000000
 -0.411765  0.000000  0.294118      2.000000
 -0.352941  0.000000  0.294118      2.000000
 -0.294118  0.000000  0.294118      2.000000
 -0.235294  0.000000  0.294118      2.000000
 -0.176471  0.000000  0.294118      2.000000
 -0.117647  0.000000  0.294118      2.000000
 -0.058824  0.000000  0.294118      2.000000
  0.000000  0.058824  0.294118      2.000000
  0.058824  0.058824  0.294118      2.000000
  0.117647  0.058824  0.294118      2.000000
  0.176471  0.058824  0.294118      2.000000
  0.235294  0.058824  0.294118      2.000000
  0.294118  0.058824  0.294118      2.000000
  0.352941  0.058824  0.294118      2.000000
  0.411765  0.058824  0.294118      2.000000
  0.470588  0.058824  0.294118      2.000000
 -0.470588  0.058824  0.294118      2.000000
 -0.411765  0.058824  0.294118      2.000000
 -0.352941  0.058824  0.294118      2.000000
 -0.294118  0.058824  0.294118      2.000000
 -0.235294  0.058824  0.294118      2.000000
 -0.176471  0.058824  0.294118      2.000000
 -0.117647  0.058824  0.294118      2.000000
 -0.058824  0.058824  0.294118      2.000000
  0.000000  0.117647  0.294118      2.000000
  0.058824  0.117647  0.294118      2.000000
  0.117647  0.117647  0.294118      2.000000
  0.176471  0.117647  0.294118      2.000000
  0.235294  0.117647  0.294118      2.000000
  0.294118  0.117647  0.294118      2.000000
  0.352941  0.117647  0.294118      2.000000
  0.411765  0.117647  0.294118      2.000000
  0.470588  0.117647  0.294118      2.000000
 -0.470588  0.117647  0.294118      2.000000
 -0.411765  0.117647  0.294118      2.000000
 -0.352941  0.117647  0.294118      2.000000
 -0.294118  0.117647  0.294118      2.000000
 -0.235294  0.117647  0.294118      2.000000
 -0.176471  0.117647  0.294118      2.000000
 -0.117647  0.117647  0.294118      2.000000
 -0.058824  0.117647  0.294118      2.000000
  0.000000  0.176471  0.294118      2.000000
  0.058824  0.176471  0.294118      2.000000
  0.117647  0.176471  0.294118      2.000000
  0.176471  0.176471  0.294118      2.000000
  0.235294  0.176471  0.294118      2.000000
  0.294118  0.176471  0.294118      2.000000
  0.352941  0.176471  0.294118      2.000000
  0.411765  0.176471  0.294118      2.000000
  0.470588  0.176471  0.294118      2.000000
 -0.470588  0.176471  0.294118      2.000000
 -0.411765  0.176471  0.294118      2.000000
 -0.352941  0.176471  0.294118      2.000000
 -0.294118  0.176471  0.294118      2.000000
 -0.235294  0.176471  0.294118      2.000000
 -0.176471  0.176471  0.294118      2.000000
 -0.117647  0.176471  0.294118      2.000000
 -0.058824  0.176471  0.294118      2.000000
  0.000000  0.235294  0.294118      2.000000
  0.058824  0.235294  0.294118      2.000000
  0.117647  0.235294  0.294118      2.000000
  0.176471  0.235294  0.294118      2.000000
  0.235294  0.235294  0.294118      2.000000
  0.294118  0.235294  0.294118      2.000000
  0.352941  0.235294  0.294118      2.000000
  0.411765  0.235294  0.294118      2.000000
  0.470588  0.235294  0.294118      2.000000
 -0.470588  0.235294  0.294118      2.000000
 -0.411765  0.235294  0.294118      2.000000
 -0.352941  0.235294  0.294118      2.000000
 -0.294118  0.235294  0.294118      2.000000
 -0.235294  0.235294  0.294118      2.000000
 -0.176471  0.235294  0.294118      2.000000
 -0.117647  0.235294  0.294118      2.000000
 -0.058824  0.235294  0.294118      2.000000
  0.000000  0.294118  0.294118      2.000000
  0.058824  0.294118  0.294118      2.000000
  0.117647  0.294118  0.294118      2.000000
  0.176471  0.294118  0.294118      2.000000
  0.235294  0.294118  0.294118      2.000000
  0.294118  0.294118  0.294118      2.000000
  0.352941  0.294118  0.294118      2.000000
  0.411765  0.294118  0.294118      2.000000
  0.470588  0.294118  0.294118      2.000000
 -0.470588  0.294118  0.294118      2.000000
 -0.411765  0.294118  0.294118      2.000000
 -0.352941  0.294118  0.294118      2.000000
 -0.294118  0.294118  0.294118      2.000000
 -0.235294  0.294118  0.294118      2.000000
 -0.176471  0.294118  0.294118      2.000000
 -0.117647  0.294118  0.294118      2.000000
 -0.058824  0.294118  0.294118      2.000000
  0.000000  0.352941  0.294118      2.000000
  0.058824  0.352941  0.294118      2.000000
  0.117647  0.352941  0.294118      2.000000
  0.176471  0.352941  0.294118      2.000000
  0.235294  0.352941  0.294118      2.000000
  0.294118  0.352941  0.294118      2.000000
  0.352941  0.352941  0.294118      2.000000
  0.411765  0.352941  0.294118      2.000000
  0.470588  0.352941  0.294118      2.000000
 -0.470588  0.352941  0.294118      2.000000
 -0.411765  0.352941  0.294118      2.000000
 -0.352941  0.352941  0.294118      2.000000
 -0.294118  0.352941  0.294118      2.000000
 -0.235294  0.352941  0.294118      2.000000
 -0.176471  0.352941  0.294118      2.000000
 -0.117647  0.352941  0.294118      2.000000
 -0.058824  0.352941  0.294118      2.000000
  0.000000  0.411765  0.294118      2.000000
  0.058824  0.411765  0.294118      2.000000
  0.117647  0.411765  0.294118      2.000000
  0.176471  0.411765  0.294118      2.000000
  0.235294  0.411765  0.294118      2.000000
  0.294118  0.411765  0.294118      2.000000
  0.352941  0.411765  0.294118      2.000000
  0.411765  0.411765  0.294118      2.000000
  0.470588  0.411765  0.294118      2.000000
 -0.470588  0.411765  0.294118      2.000000
 -0.411765  0.411765  0.294118      2.000000
 -0.352941  0.411765  0.294118      2.000000
 -0.294118  0.411765  0.294118      2.000000
 -0.235294  0.411765  0.294118      2.000000
 -0.176471  0.411765  0.294118      2.000000
 -0.117647  0.411765  0.294118      2.000000
 -0.058824  0.411765  0.294118      2.000000
  0.000000  0.470588  0.294118      2.000000
  0.058824  0.470588  0.294118      2.000000
  0.117647  0.470588  0.294118      2.000000
  0.176471  0.470588  0.294118      2.000000
  0.235294  0.470588  0.294118      2.000000
  0.294118  0.470588  0.294118      2.000000
  0.352941  0.470588  0.294118      2.000000
  0.411765  0.470588  0.294118      2.000000
  0.470588  0.470588  0.294118      2.000000
 -0.470588  0.470588  0.294118      2.000000
 -0.411765  0.470588  0.294118      2.000000
 -0.352941  0.470588  0.294118      2.000000
 -0.294118  0.470588  0.294118      2.000000
 -0.235294  0.470588  0.294118      2.000000
 -0.176471  0.470588  0.294118      2.000000
 -0.117647  0.470588  0.294118      2.000000
 -0.058824  0.470588  0.294118      2.000000
  0.000000 -0.470588  0.294118      2.000000
  0.058824 -0.470588  0.294118      2.000000
  0.117647 -0.470588  0.294118      2.000000
  0.176471 -0.470588  0.294118      2.000000
  0.235294 -0.470588  0.294118      2.000000
  0.294118 -0.470588  0.294118      2.000000
  0.352941 -0.470588  0.294118      2.000000
  0.411765 -0.470588  0.294118      2.000000
  0.470588 -0.470588  0.294118      2.000000
 -0.470588 -0.470588  0.294118      2.000000
 -0.411765 -0.470588  0.294118      2.000000
 -0.352941 -0.470588  0.294118      2.000000
[...]
      9      32.2146      0.00000
     10      32.5236      0.00000
     11      38.4741      0.00000
     12      39.4588      0.00000
     13      40.0081      0.00000
     14      45.9974      0.00000
     15      50.4289      0.00000
     16      51.0369      0.00000
     17      51.4058      0.00000
     18      53.6987      0.00000
     19      54.8153      0.00000
     20      55.2990      0.00000

 k-point  2442 :       0.0588   -0.0588    0.4706
  band No.  band energies     occupation 
      1       2.9591      2.00000
      2       4.5279      2.00000
      3      16.4701      0.00000
      4      16.8774      0.00000
      5      20.4276      0.00000
      6      20.9700      0.00000
      7      25.0408      0.00000
      8      25.9162      0.00000
      9      30.9476      0.00000
     10      32.3578      0.00000
     11      38.3559      0.00000
     12      39.8239      0.00000
     13      40.9066      0.00000
     14      46.9097      0.00000
     15      49.2106      0.00000
     16      50.3298      0.00000
     17      51.1344      0.00000
     18      53.8984      0.00000
     19      54.6820      0.00000
     20      55.9564      0.00000

 k-point  2443 :       0.1176   -0.0588    0.4706
  band No.  band energies     occupation 
      1       2.8057      2.00000
      2       5.3897      2.00000
      3      14.8244      0.00000
      4      15.5014      0.00000
      5      19.5749      0.00000
      6      22.6013      0.00000
      7      26.7085      0.00000
      8      28.0063      0.00000
      9      28.9824      0.00000
     10      32.4646      0.00000
     11      38.6840      0.00000
     12      40.0093      0.00000
     13      41.9574      0.00000
     14      47.3723      0.00000
     15      48.2938      0.00000
     16      49.8257      0.00000
     17      50.6875      0.00000
     18      53.1381      0.00000
     19      54.9573      0.00000
     20      55.9286      0.00000

 k-point  2444 :       0.1765   -0.0588    0.4706
  band No.  band energies     occupation 
      1       2.8309      2.00000
      2       6.4199      2.00000
      3      12.9696      0.00000
      4      14.5604      0.00000
      5      18.6871      0.00000
      6      24.3873      0.00000
      7      26.0237      0.00000
      8      29.0704      0.00000
      9      30.6478      0.00000
     10      32.6729      0.00000
     11      39.2711      0.00000
     12      40.3247      0.00000
     13      42.7398      0.00000
     14      46.1231      0.00000
     15      47.7407      0.00000
     16      49.2751      0.00000
     17      51.5727      0.00000
     18      52.3946      0.00000
     19      53.6779      0.00000
     20      55.1966      0.00000

 k-point  2445 :       0.2353   -0.0588    0.4706
  band No.  band energies     occupation 
      1       3.0343      2.00000
      2       7.6071      2.00000
      3      11.2367      0.00000
      4      13.8008      0.00000
      5      17.8960      0.00000
      6      23.6241      0.00000
      7      26.5014      0.00000
      8      30.6308      0.00000
      9      32.9445      0.00000
     10      33.5394      0.00000
     11      39.9664      0.00000
     12      40.8696      0.00000
     13      42.9767      0.00000
     14      45.3960      0.00000
     15      46.6326      0.00000
     16      48.5484      0.00000
     17      50.9055      0.00000
     18      51.3374      0.00000
     19      53.6610      0.00000
     20      54.4640      0.00000

 k-point  2446 :       0.2941   -0.0588    0.4706
  band No.  band energies     occupation 
      1       3.4121      2.00000
      2       8.9002     -0.00000
      3       9.6950     -0.00000
      4      13.2212      0.00000
      5      17.2068      0.00000
      6      21.4135      0.00000
      7      28.5539      0.00000
      8      32.0461      0.00000
      9      33.5213      0.00000
     10      36.3360      0.00000
     11      40.6632      0.00000
     12      41.6633      0.00000
     13      42.5484      0.00000
     14      45.2779      0.00000
     15      45.4672      0.00000
     16      48.0621      0.00000
     17      48.7898      0.00000
     18      50.5307      0.00000
     19      53.2659      0.00000
     20      53.6866      0.00000

 k-point  2447 :       0.3529   -0.0588    0.4706
  band No.  band energies     occupation 
      1       3.9541      2.00000
      2       8.2181     -0.01055
      3      10.3965     -0.00000
      4      12.8523      0.00000
      5      16.5322      0.00000
      6      19.4514      0.00000
      7      30.6376      0.00000
      8      32.9369      0.00000
      9      34.3696      0.00000
     10      38.7670      0.00000
     11      41.2664      0.00000
     12      41.9062      0.00000
     13      42.7027      0.00000
     14      44.2619      0.00000
     15      45.0606      0.00000
     16      47.4421      0.00000
     17      48.1867      0.00000
     18      50.1071      0.00000
     19      51.2402      0.00000
     20      53.0442      0.00000

 k-point  2448 :       0.4118   -0.0588    0.4706
  band No.  band energies     occupation 
      1       4.6187      2.00000
      2       7.0426      2.00000
      3      11.6324      0.00000
      4      12.9152      0.00000
      5      15.5884      0.00000
      6      18.1287      0.00000
      7      32.4556      0.00000
      8      33.5197      0.00000
      9      34.9644      0.00000
     10      40.2402      0.00000
     11      41.5020      0.00000
     12      41.7556      0.00000
     13      42.0400      0.00000
     14      43.9948      0.00000
     15      45.8069      0.00000
     16      47.4808      0.00000
     17      48.6652      0.00000
     18      49.7139      0.00000
     19      49.9836      0.00000
     20      52.1286      0.00000

 k-point  2449 :       0.4706   -0.0588    0.4706
  band No.  band energies     occupation 
      1       5.0910      2.00000
      2       6.3986      2.00000
      3      11.9692      0.00000
      4      13.6712      0.00000
      5      14.5766      0.00000
      6      17.7258      0.00000
      7      33.0992      0.00000
      8      34.4024      0.00000
      9      34.6622      0.00000
     10      40.5374      0.00000
     11      41.0635      0.00000
     12      41.8612      0.00000
     13      42.1304      0.00000
     14      43.2800      0.00000
     15      47.6054      0.00000
     16      47.9700      0.00000
     17      48.6113      0.00000
     18      49.3433      0.00000
     19      50.4697      0.00000
     20      50.5551      0.00000

 k-point  2450 :      -0.4706   -0.0588    0.4706
  band No.  band energies     occupation 
      1       4.6281      2.00000
      2       7.0347      2.00000
      3      11.6323      0.00000
      4      12.8748      0.00000
      5      15.6252      0.00000
      6      18.1345      0.00000
      7      32.4722      0.00000
      8      33.7833      0.00000
      9      34.7476      0.00000
     10      40.2305      0.00000
     11      41.2579      0.00000
     12      41.5052      0.00000
     13      42.2293      0.00000
     14      44.1177      0.00000
     15      45.6296      0.00000
     16      47.5901      0.00000
     17      48.7879      0.00000
     18      49.7865      0.00000
     19      50.2209      0.00000
     20      52.0946      0.00000

 k-point  2451 :      -0.4118   -0.0588    0.4706
  band No.  band energies     occupation 
      1       3.9653      2.00000
      2       8.2098     -0.01405
      3      10.3843     -0.00000
      4      12.8172      0.00000
      5      16.5704      0.00000
      6      19.4647      0.00000
      7      30.7105      0.00000
      8      33.1730      0.00000
      9      34.1565      0.00000
     10      38.7129      0.00000
     11      41.2396      0.00000
     12      41.6320      0.00000
     13      42.5203      0.00000
     14      44.1689      0.00000
     15      45.2290      0.00000
     16      47.6332      0.00000
     17      48.3238      0.00000
     18      50.1156      0.00000
     19      51.4685      0.00000
     20      53.0778      0.00000

 k-point  2452 :      -0.3529   -0.0588    0.4706
  band No.  band energies     occupation 
      1       3.4244      2.00000
      2       8.8834     -0.00000
      3       9.6886     -0.00000
      4      13.1823      0.00000
      5      17.2493      0.00000
      6      21.4321      0.00000
      7      28.6391      0.00000
      8      32.1482      0.00000
      9      33.4462      0.00000
     10      36.2923      0.00000
     11      40.8652      0.00000
     12      41.2277      0.00000
     13      42.1378      0.00000
     14      45.3631      0.00000
     15      45.6946      0.00000
     16      48.1492      0.00000
     17      48.9042      0.00000
     18      50.5673      0.00000
     19      53.4087      0.00000
     20      53.7312      0.00000

 k-point  2453 :      -0.2941   -0.0588    0.4706
  band No.  band energies     occupation 
      1       3.0473      2.00000
      2       7.5897      2.00000
      3      11.2312      0.00000
      4      13.7549      0.00000
      5      17.9453      0.00000
      6      23.6485      0.00000
      7      26.5819      0.00000
      8      30.6213      0.00000
      9      32.9966      0.00000
     10      33.4988      0.00000
     11      40.1057      0.00000
     12      40.4548      0.00000
     13      42.6978      0.00000
     14      45.5290      0.00000
     15      46.7322      0.00000
     16      48.6638      0.00000
     17      50.8792      0.00000
     18      51.4630      0.00000
     19      53.6701      0.00000
     20      54.4801      0.00000

 k-point  2454 :      -0.2353   -0.0588    0.4706
  band No.  band energies     occupation 
      1       2.8447      2.00000
      2       6.4025      2.00000
      3      12.9660      0.00000
      4      14.5062      0.00000
      5      18.7441      0.00000
      6      24.4833      0.00000
      7      26.0194      0.00000
      8      29.0397      0.00000
      9      30.6289      0.00000
     10      32.7363      0.00000
     11      39.3254      0.00000
     12      39.9785      0.00000
     13      42.7504      0.00000
     14      45.9451      0.00000
     15      47.8315      0.00000
     16      49.4241      0.00000
     17      51.6435      0.00000
     18      52.4036      0.00000
     19      53.7105      0.00000
     20      55.2125      0.00000

 k-point  2455 :      -0.1765   -0.0588    0.4706
  band No.  band energies     occupation 
      1       2.8201      2.00000
      2       5.3726      2.00000
      3      14.8244      0.00000
      4      15.4376      0.00000
      5      19.6395      0.00000
      6      22.6836      0.00000
      7      26.6601      0.00000
      8      27.9793      0.00000
      9      29.0050      0.00000
     10      32.5237      0.00000
     11      38.7020      0.00000
     12      39.7122      0.00000
     13      42.0935      0.00000
     14      47.0426      0.00000
     15      48.3494      0.00000
     16      49.9133      0.00000
     17      50.8146      0.00000
     18      53.2297      0.00000
     19      54.9993      0.00000
     20      55.9408      0.00000

 k-point  2456 :      -0.1176   -0.0588    0.4706
  band No.  band energies     occupation 
      1       2.9740      2.00000
      2       4.5114      2.00000
      3      16.4229      0.00000
      4      16.8574      0.00000
      5      20.5004      0.00000
      6      21.0345      0.00000
      7      25.0376      0.00000
      8      25.8484      0.00000
      9      30.9820      0.00000
     10      32.3847      0.00000
     11      38.3770      0.00000
     12      39.5417      0.00000
     13      41.0874      0.00000
     14      46.8471      0.00000
     15      48.9557      0.00000
     16      50.3281      0.00000
     17      51.3417      0.00000
     18      53.9546      0.00000
     19      54.8333      0.00000
     20      55.9997      0.00000

 k-point  2457 :      -0.0588   -0.0588    0.4706
  band No.  band energies     occupation 
      1       3.2983      2.00000
      2       3.8325      2.00000
      3      17.6268      0.00000
      4      18.3993      0.00000
      5      19.8858      0.00000
      6      20.7131      0.00000
      7      23.8375      0.00000
      8      24.3864      0.00000
      9      32.2778      0.00000
     10      32.4830      0.00000
     11      38.5254      0.00000
     12      39.2399      0.00000
     13      40.1482      0.00000
     14      45.9865      0.00000
     15      50.2807      0.00000
     16      50.8706      0.00000
     17      51.6708      0.00000
     18      53.7474      0.00000
     19      54.9860      0.00000
     20      55.2216      0.00000


--------------------------------------------------------------------------------------------------------


 soft charge-density along one line, spin component            1
         0         1         2         3         4         5         6         7         8         9
 total charge-density along one line
 
 pseudopotential strength for first ion, spin component:            1
  8.444  14.391   0.000   0.000   0.000   0.000   0.000  -0.000
 14.391  24.527   0.000   0.000  -0.000   0.000   0.000   0.000
  0.000   0.000   1.988  -0.000   0.000   5.731  -0.000   0.000
  0.000   0.000  -0.000   1.988   0.000  -0.000   5.731   0.000
  0.000  -0.000   0.000   0.000   1.988   0.000   0.000   5.731
  0.000   0.000   5.731  -0.000   0.000  16.436  -0.000   0.000
  0.000   0.000  -0.000   5.731   0.000  -0.000  16.436   0.000
 -0.000   0.000   0.000   0.000   5.731   0.000   0.000  16.436
 total augmentation occupancy for first ion, spin component:            1
  3.350  -0.824   0.000   0.000   0.000   0.000   0.000   0.000
 -0.824   0.271   0.000   0.000   0.000   0.000   0.000   0.000
  0.000   0.000   1.102   0.004  -0.001  -0.070  -0.000   0.000
  0.000   0.000   0.004   1.105   0.002  -0.000  -0.071  -0.000
  0.000   0.000  -0.001   0.002   1.105   0.000  -0.000  -0.071
  0.000   0.000  -0.070  -0.000   0.000   0.005   0.000  -0.000
  0.000   0.000  -0.000  -0.071  -0.000   0.000   0.005   0.000
  0.000   0.000   0.000  -0.000  -0.071  -0.000   0.000   0.005


------------------------ aborting loop because EDIFF is reached ----------------------------------------





 total charge

# of ion       s       p       d       tot
------------------------------------------
    1        0.428   0.339   0.000   0.768
 
    CHARGE:  cpu time      0.1244: real time      0.1247
    FORLOC:  cpu time      0.0004: real time      0.0004
    FORNL :  cpu time      1.1411: real time      1.1438
    STRESS:  cpu time      3.4298: real time      3.4379
    FORCOR:  cpu time      0.0076: real time      0.0076
    FORHAR:  cpu time      0.0017: real time      0.0017
    MIXING:  cpu time      0.0011: real time      0.0011
    OFIELD:  cpu time      0.0001: real time      0.0001

  FORCE on cell =-STRESS in cart. coord.  units (eV):
  Direction    XX          YY          ZZ          XY          YZ          ZX
  --------------------------------------------------------------------------------------
  Alpha Z    -0.20359    -0.20359    -0.20359
  Ewald     -24.47535   -24.53753   -24.50510    -0.01319     0.05421     0.05642
  Hartree     0.03560     0.03520     0.03487     0.00043    -0.00162     0.00126
  E(xc)      -8.56547    -8.56395    -8.56529     0.00094    -0.00356    -0.00039
  Local       0.31906     0.38094     0.34386     0.01853    -0.07143    -0.04791
  n-local    18.90078    18.88533    18.90107    -0.01135     0.04274     0.00262
  augment    -1.03228    -1.03146    -1.03226     0.00031    -0.00115    -0.00043
  Kinetic    15.01285    15.01468    15.01586     0.01013    -0.03732     0.01053
  Fock        0.00000     0.00000     0.00000     0.00000     0.00000     0.00000
  -------------------------------------------------------------------------------------
  Total      -0.00838    -0.02037    -0.01057     0.00581    -0.01812     0.02211
  in kB      -0.81376    -1.97773    -1.02629     0.56375    -1.75997     2.14721
  external pressure =       -1.27 kB  Pullay stress =        0.00 kB


 VOLUME and BASIS-vectors are now :
 -----------------------------------------------------------------------------
  energy-cutoff  :      450.00
  volume of cell :       16.50
      direct lattice vectors                 reciprocal lattice vectors
     2.473329000  0.000000000  1.427977000     0.404642966 -0.142716104 -0.000570864
     0.824443000  2.331877000  1.416553183    -0.000988766  0.428148312  0.001712593
     0.000000000 -0.011423820  2.855955000    -0.201830984 -0.141003461  0.349581559

  length of vectors
     2.855954246  2.850259554  2.855977848     0.429073586  0.428152879  0.427580389


 FORCES acting on ions
    electron-ion (+dipol)            ewald-force                    non-local-force                 convergence-correction
 -----------------------------------------------------------------------------------------------
   0.242E-14 -.209E-14 -.503E-16   -.334E-15 0.263E-16 0.600E-16   -.646E-26 0.000E+00 0.000E+00   -.336E-17 0.267E-17 -.152E-17
 -----------------------------------------------------------------------------------------------
   0.242E-14 -.209E-14 -.503E-16   -.334E-15 0.263E-16 0.600E-16   -.646E-26 0.000E+00 0.000E+00   -.336E-17 0.267E-17 -.152E-17
 
 
 POSITION                                       TOTAL-FORCE (eV/Angst)
 -----------------------------------------------------------------------------------
      0.00000      0.00000      0.00000         0.000000      0.000000      0.000000
 -----------------------------------------------------------------------------------
    total drift:                                0.000000     -0.000000      0.000000


--------------------------------------------------------------------------------------------------------



  FREE ENERGIE OF THE ION-ELECTRON SYSTEM (eV)
  ---------------------------------------------------
  free  energy   TOTEN  =        -3.74819044 eV

  energy  without entropy=       -3.74794615  energy(sigma->0) =       -3.74810901
 


--------------------------------------------------------------------------------------------------------


    POTLOK:  cpu time      0.0093: real time      0.0094


--------------------------------------------------------------------------------------------------------


 Quasi-Newton relaxation of ions (Broydens 2nd method)
  g(Force)  = 0.188E-63   g(Stress)= 0.444E-04

 Reset! Starting new Quasi-Newton update for ions 


--------------------------------------------------------------------------------------------------------


     LOOP+:  cpu time    542.5338: real time    287.7884
    4ORBIT:  cpu time      0.0000: real time      0.0000



 total charge

# of ion       s       p       d       tot
------------------------------------------
    1        0.428   0.339   0.000   0.768
 

 total amount of memory used by VASP MPI-rank0    46650. kBytes
=======================================================================

   base      :      30000. kBytes
   nonlr-proj:        293. kBytes
   fftplans  :        145. kBytes
   grid      :        485. kBytes
   one-center:          3. kBytes
   wavefun   :      15724. kBytes
 
  
  
 General timing and accounting informations for this job:
 ========================================================
  
                  Total CPU time used (sec):      546.177
                            User time (sec):      498.711
                          System time (sec):       47.466
                         Elapsed time (sec):      291.694
  
                   Maximum memory used (kb):      176464.
                   Average memory used (kb):          N/A
  
                          Minor page faults:       754850
                          Major page faults:           14
                 Voluntary context switches:        39776
