<?xml version="1.0" encoding="ISO-8859-1"?>
<modeling>
 <generator>
  <i name="program" type="string">vasp </i>
  <i name="version" type="string">5.4.4.18Apr17-6-g9f103f2a35  </i>
  <i name="subversion" type="string">(build Mar 26 2019 17:47:52) complex            parallel </i>
  <i name="platform" type="string">LINUX </i>
  <i name="date" type="string">2022 01 21 </i>
  <i name="time" type="string">00:47:16 </i>
 </generator>
 <incar>
  <i type="string" name="SYSTEM"> CBW</i>
  <i type="int" name="ISTART">     0</i>
  <i type="string" name="PREC">accurate</i>
  <i type="string" name="ALGO"> Fast</i>
  <i type="int" name="ICHARG">     2</i>
  <i type="int" name="IBRION">     2</i>
  <i name="EDIFF">      0.00000100</i>
  <i type="int" name="NSW">     0</i>
  <i type="int" name="ISIF">     2</i>
  <i name="ENCUT">    500.00000000</i>
  <i type="logical" name="LREAL"> F  </i>
  <i type="int" name="ISMEAR">     0</i>
  <i name="SIGMA">      0.01000000</i>
  <i type="logical" name="LWAVE"> F  </i>
  <i type="logical" name="LCHARG"> F  </i>
  <v type="int" name="KPOINT_BSE">    -1     0     0     0</v>
 </incar>
 <structure name="primitive_cell" >
  <crystal>
   <varray name="basis" >
    <v>      10.66614950       0.00000000       0.00000000 </v>
    <v>       0.00000000      12.31618458       0.00000000 </v>
    <v>       0.00000000       0.00000000      18.65835931 </v>
   </varray>
   <i name="volume">   2451.07899282 </i>
   <varray name="rec_basis" >
    <v>       0.09375455       0.00000000       0.00000000 </v>
    <v>       0.00000000       0.08119398       0.00000000 </v>
    <v>       0.00000000       0.00000000       0.05359528 </v>
   </varray>
  </crystal>
  <varray name="positions" >
   <v>       0.08614597       0.12500000       0.00000000 </v>
   <v>       0.24999320       0.12500000      -0.06935992 </v>
   <v>       0.16667346       0.00000000       0.06935992 </v>
   <v>       0.16667346       0.25000000       0.06935992 </v>
   <v>      -0.00000680       0.00000000      -0.06935992 </v>
   <v>      -0.00000680       0.25000000      -0.06935992 </v>
   <v>      -0.08332654       0.12500000       0.06935992 </v>
   <v>       0.25000470       0.12500000       0.12690106 </v>
   <v>       0.16666197       0.00000000      -0.12690106 </v>
   <v>       0.16666197       0.25000000      -0.12690106 </v>
   <v>       0.00000470       0.00000000       0.12690106 </v>
   <v>       0.00000470       0.25000000       0.12690106 </v>
   <v>      -0.08333803       0.12500000      -0.12690106 </v>
   <v>       0.33333333       0.00000000       0.00000000 </v>
   <v>       0.33333333       0.25000000       0.00000000 </v>
   <v>       0.08333333      -0.12500000       0.00000000 </v>
   <v>      -0.16666667       0.00000000       0.00000000 </v>
   <v>      -0.16666667       0.25000000       0.00000000 </v>
   <v>       0.08333333       0.37743582       0.00000000 </v>
   <v>       0.41667346       0.12500000       0.06935992 </v>
   <v>       0.24999320       0.37500000      -0.06935992 </v>
   <v>       0.24999320      -0.12500000      -0.06935992 </v>
   <v>      -0.08332654       0.37500000       0.06935992 </v>
   <v>      -0.08332654      -0.12500000       0.06935992 </v>
   <v>      -0.25000680       0.12500000      -0.06935992 </v>
   <v>       0.41666197       0.12500000      -0.12690106 </v>
   <v>       0.25000470       0.37500000       0.12690106 </v>
   <v>       0.25000470      -0.12500000       0.12690106 </v>
   <v>      -0.08333803       0.37500000      -0.12690106 </v>
   <v>      -0.08333803      -0.12500000      -0.12690106 </v>
   <v>      -0.24999530       0.12500000       0.12690106 </v>
   <v>       0.08334988       0.12500000      -0.25000000 </v>
   <v>       0.08331678       0.12500000       0.25000000 </v>
   <v>       0.49999320       0.00000000      -0.06935992 </v>
   <v>       0.49999320       0.25000000      -0.06935992 </v>
   <v>       0.41667346       0.37500000       0.06935992 </v>
   <v>       0.41667346      -0.12500000       0.06935992 </v>
   <v>       0.16667346      -0.50000000       0.06935992 </v>
   <v>       0.16667346      -0.25000000       0.06935992 </v>
   <v>      -0.00000680      -0.50000000      -0.06935992 </v>
   <v>      -0.00000680      -0.25000000      -0.06935992 </v>
   <v>      -0.25000680       0.37500000      -0.06935992 </v>
   <v>      -0.25000680      -0.12500000      -0.06935992 </v>
   <v>      -0.33332654       0.00000000       0.06935992 </v>
   <v>      -0.33332654       0.25000000       0.06935992 </v>
   <v>      -0.49999530       0.00000000       0.12690106 </v>
   <v>      -0.49999530       0.25000000       0.12690106 </v>
   <v>       0.41666197       0.37500000      -0.12690106 </v>
   <v>       0.41666197      -0.12500000      -0.12690106 </v>
   <v>       0.16666197      -0.50000000      -0.12690106 </v>
   <v>       0.16666197      -0.25000000      -0.12690106 </v>
   <v>       0.00000470      -0.50000000       0.12690106 </v>
   <v>       0.00000470      -0.25000000       0.12690106 </v>
   <v>      -0.24999530       0.37500000       0.12690106 </v>
   <v>      -0.24999530      -0.12500000       0.12690106 </v>
   <v>      -0.33333803       0.00000000      -0.12690106 </v>
   <v>      -0.33333803       0.25000000      -0.12690106 </v>
   <v>      -0.41666667       0.12500000       0.00000000 </v>
   <v>       0.33333333      -0.50000000       0.00000000 </v>
   <v>       0.33333333      -0.25000000       0.00000000 </v>
   <v>      -0.16666667      -0.50000000       0.00000000 </v>
   <v>      -0.16666667      -0.25000000       0.00000000 </v>
   <v>       0.33331678       0.00000000       0.25000000 </v>
   <v>       0.33331678       0.25000000       0.25000000 </v>
   <v>       0.33334988       0.00000000      -0.25000000 </v>
   <v>       0.33334988       0.25000000      -0.25000000 </v>
   <v>       0.08334988       0.37500000      -0.25000000 </v>
   <v>       0.08334988      -0.12500000      -0.25000000 </v>
   <v>       0.08331678       0.37500000       0.25000000 </v>
   <v>       0.08331678      -0.12500000       0.25000000 </v>
   <v>      -0.16665012       0.00000000      -0.25000000 </v>
   <v>      -0.16665012       0.25000000      -0.25000000 </v>
   <v>      -0.16668322       0.00000000       0.25000000 </v>
   <v>      -0.16668322       0.25000000       0.25000000 </v>
   <v>      -0.41666667       0.37500000       0.00000000 </v>
   <v>      -0.41666667      -0.12500000       0.00000000 </v>
   <v>       0.08333333      -0.37500000       0.00000000 </v>
   <v>       0.49999320      -0.50000000      -0.06935992 </v>
   <v>       0.49999320      -0.25000000      -0.06935992 </v>
   <v>       0.24999320      -0.37500000      -0.06935992 </v>
   <v>      -0.08332654      -0.37500000       0.06935992 </v>
   <v>      -0.33332654      -0.50000000       0.06935992 </v>
   <v>      -0.33332654      -0.25000000       0.06935992 </v>
   <v>      -0.49999530      -0.50000000       0.12690106 </v>
   <v>      -0.49999530      -0.25000000       0.12690106 </v>
   <v>       0.25000470      -0.37500000       0.12690106 </v>
   <v>      -0.08333803      -0.37500000      -0.12690106 </v>
   <v>      -0.33333803      -0.50000000      -0.12690106 </v>
   <v>      -0.33333803      -0.25000000      -0.12690106 </v>
   <v>      -0.41668322       0.12500000       0.25000000 </v>
   <v>      -0.41665012       0.12500000      -0.25000000 </v>
   <v>       0.33331678      -0.50000000       0.25000000 </v>
   <v>       0.33331678      -0.25000000       0.25000000 </v>
   <v>       0.33334988      -0.50000000      -0.25000000 </v>
   <v>       0.33334988      -0.25000000      -0.25000000 </v>
   <v>      -0.16665012      -0.50000000      -0.25000000 </v>
   <v>      -0.16665012      -0.25000000      -0.25000000 </v>
   <v>      -0.16668322      -0.50000000       0.25000000 </v>
   <v>      -0.16668322      -0.25000000       0.25000000 </v>
   <v>       0.25000470       0.12500000       0.37309894 </v>
   <v>       0.16666197       0.00000000      -0.37309894 </v>
   <v>       0.16666197       0.25000000      -0.37309894 </v>
   <v>       0.00000470       0.00000000       0.37309894 </v>
   <v>       0.00000470       0.25000000       0.37309894 </v>
   <v>      -0.08333803       0.12500000      -0.37309894 </v>
   <v>       0.41667346      -0.37500000       0.06935992 </v>
   <v>      -0.25000680      -0.37500000      -0.06935992 </v>
   <v>       0.41666197      -0.37500000      -0.12690106 </v>
   <v>      -0.24999530      -0.37500000       0.12690106 </v>
   <v>      -0.41668322       0.37500000       0.25000000 </v>
   <v>      -0.41668322      -0.12500000       0.25000000 </v>
   <v>      -0.41665012       0.37500000      -0.25000000 </v>
   <v>      -0.41665012      -0.12500000      -0.25000000 </v>
   <v>       0.08334988      -0.37500000      -0.25000000 </v>
   <v>       0.08331678      -0.37500000       0.25000000 </v>
   <v>       0.41666197       0.12500000      -0.37309894 </v>
   <v>       0.25000470       0.37500000       0.37309894 </v>
   <v>       0.25000470      -0.12500000       0.37309894 </v>
   <v>      -0.08333803       0.37500000      -0.37309894 </v>
   <v>      -0.08333803      -0.12500000      -0.37309894 </v>
   <v>      -0.24999530       0.12500000       0.37309894 </v>
   <v>      -0.41666667      -0.37500000       0.00000000 </v>
   <v>       0.24999320       0.12500000      -0.43064008 </v>
   <v>       0.16667346       0.00000000       0.43064008 </v>
   <v>       0.16667346       0.25000000       0.43064008 </v>
   <v>      -0.00000680       0.00000000      -0.43064008 </v>
   <v>      -0.00000680       0.25000000      -0.43064008 </v>
   <v>      -0.08332654       0.12500000       0.43064008 </v>
   <v>      -0.49999530       0.00000000       0.37309894 </v>
   <v>      -0.49999530       0.25000000       0.37309894 </v>
   <v>       0.41666197       0.37500000      -0.37309894 </v>
   <v>       0.41666197      -0.12500000      -0.37309894 </v>
   <v>       0.16666197      -0.50000000      -0.37309894 </v>
   <v>       0.16666197      -0.25000000      -0.37309894 </v>
   <v>       0.00000470      -0.50000000       0.37309894 </v>
   <v>       0.00000470      -0.25000000       0.37309894 </v>
   <v>      -0.24999530       0.37500000       0.37309894 </v>
   <v>      -0.24999530      -0.12500000       0.37309894 </v>
   <v>      -0.33333803       0.00000000      -0.37309894 </v>
   <v>      -0.33333803       0.25000000      -0.37309894 </v>
   <v>       0.41667346       0.12500000       0.43064008 </v>
   <v>       0.24999320       0.37500000      -0.43064008 </v>
   <v>       0.24999320      -0.12500000      -0.43064008 </v>
   <v>      -0.08332654       0.37500000       0.43064008 </v>
   <v>      -0.08332654      -0.12500000       0.43064008 </v>
   <v>      -0.25000680       0.12500000      -0.43064008 </v>
   <v>       0.49999320       0.00000000      -0.43064008 </v>
   <v>       0.49999320       0.25000000      -0.43064008 </v>
   <v>       0.41667346       0.37500000       0.43064008 </v>
   <v>       0.41667346      -0.12500000       0.43064008 </v>
   <v>       0.16667346      -0.50000000       0.43064008 </v>
   <v>       0.16667346      -0.25000000       0.43064008 </v>
   <v>      -0.00000680      -0.50000000      -0.43064008 </v>
   <v>      -0.00000680      -0.25000000      -0.43064008 </v>
   <v>      -0.25000680       0.37500000      -0.43064008 </v>
   <v>      -0.25000680      -0.12500000      -0.43064008 </v>
   <v>      -0.33332654       0.00000000       0.43064008 </v>
   <v>      -0.33332654       0.25000000       0.43064008 </v>
   <v>       0.08333333       0.12500000      -0.50000000 </v>
   <v>      -0.41668322      -0.37500000       0.25000000 </v>
   <v>      -0.41665012      -0.37500000      -0.25000000 </v>
   <v>      -0.49999530      -0.50000000       0.37309894 </v>
   <v>      -0.49999530      -0.25000000       0.37309894 </v>
   <v>       0.25000470      -0.37500000       0.37309894 </v>
   <v>      -0.08333803      -0.37500000      -0.37309894 </v>
   <v>      -0.33333803      -0.50000000      -0.37309894 </v>
   <v>      -0.33333803      -0.25000000      -0.37309894 </v>
   <v>       0.33333333       0.00000000      -0.50000000 </v>
   <v>       0.33333333       0.25000000      -0.50000000 </v>
   <v>       0.08333333       0.37500000      -0.50000000 </v>
   <v>       0.08333333      -0.12500000      -0.50000000 </v>
   <v>      -0.16666667       0.00000000      -0.50000000 </v>
   <v>      -0.16666667       0.25000000      -0.50000000 </v>
   <v>       0.41666197      -0.37500000      -0.37309894 </v>
   <v>      -0.24999530      -0.37500000       0.37309894 </v>
   <v>       0.49999320      -0.50000000      -0.43064008 </v>
   <v>       0.49999320      -0.25000000      -0.43064008 </v>
   <v>       0.24999320      -0.37500000      -0.43064008 </v>
   <v>      -0.08332654      -0.37500000       0.43064008 </v>
   <v>      -0.33332654      -0.50000000       0.43064008 </v>
   <v>      -0.33332654      -0.25000000       0.43064008 </v>
   <v>       0.41667346      -0.37500000       0.43064008 </v>
   <v>      -0.41666667       0.12500000      -0.50000000 </v>
   <v>       0.33333333      -0.50000000      -0.50000000 </v>
   <v>       0.33333333      -0.25000000      -0.50000000 </v>
   <v>      -0.25000680      -0.37500000      -0.43064008 </v>
   <v>      -0.16666667      -0.50000000      -0.50000000 </v>
   <v>      -0.16666667      -0.25000000      -0.50000000 </v>
   <v>      -0.41666667       0.37500000      -0.50000000 </v>
   <v>      -0.41666667      -0.12500000      -0.50000000 </v>
   <v>       0.08333333      -0.37500000      -0.50000000 </v>
   <v>      -0.41666667      -0.37500000      -0.50000000 </v>
  </varray>
 </structure>
 <varray name="primitive_index" >
  <v type="int" >        1 </v>
  <v type="int" >      185 </v>
  <v type="int" >      129 </v>
  <v type="int" >      131 </v>
  <v type="int" >      178 </v>
  <v type="int" >      180 </v>
  <v type="int" >      138 </v>
  <v type="int" >       25 </v>
  <v type="int" >       81 </v>
  <v type="int" >       83 </v>
  <v type="int" >       17 </v>
  <v type="int" >       19 </v>
  <v type="int" >       90 </v>
  <v type="int" >        9 </v>
  <v type="int" >       11 </v>
  <v type="int" >        7 </v>
  <v type="int" >       10 </v>
  <v type="int" >       12 </v>
  <v type="int" >        3 </v>
  <v type="int" >      137 </v>
  <v type="int" >      187 </v>
  <v type="int" >      191 </v>
  <v type="int" >      140 </v>
  <v type="int" >      144 </v>
  <v type="int" >      186 </v>
  <v type="int" >       89 </v>
  <v type="int" >       27 </v>
  <v type="int" >       31 </v>
  <v type="int" >       92 </v>
  <v type="int" >       96 </v>
  <v type="int" >       26 </v>
  <v type="int" >      113 </v>
  <v type="int" >       97 </v>
  <v type="int" >      177 </v>
  <v type="int" >      179 </v>
  <v type="int" >      139 </v>
  <v type="int" >      143 </v>
  <v type="int" >      133 </v>
  <v type="int" >      135 </v>
  <v type="int" >      182 </v>
  <v type="int" >      184 </v>
  <v type="int" >      188 </v>
  <v type="int" >      192 </v>
  <v type="int" >      130 </v>
  <v type="int" >      132 </v>
  <v type="int" >       18 </v>
  <v type="int" >       20 </v>
  <v type="int" >       91 </v>
  <v type="int" >       95 </v>
  <v type="int" >       85 </v>
  <v type="int" >       87 </v>
  <v type="int" >       21 </v>
  <v type="int" >       23 </v>
  <v type="int" >       28 </v>
  <v type="int" >       32 </v>
  <v type="int" >       82 </v>
  <v type="int" >       84 </v>
  <v type="int" >        2 </v>
  <v type="int" >       13 </v>
  <v type="int" >       15 </v>
  <v type="int" >       14 </v>
  <v type="int" >       16 </v>
  <v type="int" >      105 </v>
  <v type="int" >      107 </v>
  <v type="int" >      121 </v>
  <v type="int" >      123 </v>
  <v type="int" >      115 </v>
  <v type="int" >      119 </v>
  <v type="int" >       99 </v>
  <v type="int" >      103 </v>
  <v type="int" >      122 </v>
  <v type="int" >      124 </v>
  <v type="int" >      106 </v>
  <v type="int" >      108 </v>
  <v type="int" >        4 </v>
  <v type="int" >        8 </v>
  <v type="int" >        5 </v>
  <v type="int" >      181 </v>
  <v type="int" >      183 </v>
  <v type="int" >      189 </v>
  <v type="int" >      142 </v>
  <v type="int" >      134 </v>
  <v type="int" >      136 </v>
  <v type="int" >       22 </v>
  <v type="int" >       24 </v>
  <v type="int" >       29 </v>
  <v type="int" >       94 </v>
  <v type="int" >       86 </v>
  <v type="int" >       88 </v>
  <v type="int" >       98 </v>
  <v type="int" >      114 </v>
  <v type="int" >      109 </v>
  <v type="int" >      111 </v>
  <v type="int" >      125 </v>
  <v type="int" >      127 </v>
  <v type="int" >      126 </v>
  <v type="int" >      128 </v>
  <v type="int" >      110 </v>
  <v type="int" >      112 </v>
  <v type="int" >       41 </v>
  <v type="int" >       65 </v>
  <v type="int" >       67 </v>
  <v type="int" >       33 </v>
  <v type="int" >       35 </v>
  <v type="int" >       74 </v>
  <v type="int" >      141 </v>
  <v type="int" >      190 </v>
  <v type="int" >       93 </v>
  <v type="int" >       30 </v>
  <v type="int" >      100 </v>
  <v type="int" >      104 </v>
  <v type="int" >      116 </v>
  <v type="int" >      120 </v>
  <v type="int" >      117 </v>
  <v type="int" >      101 </v>
  <v type="int" >       73 </v>
  <v type="int" >       43 </v>
  <v type="int" >       47 </v>
  <v type="int" >       76 </v>
  <v type="int" >       80 </v>
  <v type="int" >       42 </v>
  <v type="int" >        6 </v>
  <v type="int" >      169 </v>
  <v type="int" >      145 </v>
  <v type="int" >      147 </v>
  <v type="int" >      162 </v>
  <v type="int" >      164 </v>
  <v type="int" >      154 </v>
  <v type="int" >       34 </v>
  <v type="int" >       36 </v>
  <v type="int" >       75 </v>
  <v type="int" >       79 </v>
  <v type="int" >       69 </v>
  <v type="int" >       71 </v>
  <v type="int" >       37 </v>
  <v type="int" >       39 </v>
  <v type="int" >       44 </v>
  <v type="int" >       48 </v>
  <v type="int" >       66 </v>
  <v type="int" >       68 </v>
  <v type="int" >      153 </v>
  <v type="int" >      171 </v>
  <v type="int" >      175 </v>
  <v type="int" >      156 </v>
  <v type="int" >      160 </v>
  <v type="int" >      170 </v>
  <v type="int" >      161 </v>
  <v type="int" >      163 </v>
  <v type="int" >      155 </v>
  <v type="int" >      159 </v>
  <v type="int" >      149 </v>
  <v type="int" >      151 </v>
  <v type="int" >      166 </v>
  <v type="int" >      168 </v>
  <v type="int" >      172 </v>
  <v type="int" >      176 </v>
  <v type="int" >      146 </v>
  <v type="int" >      148 </v>
  <v type="int" >       49 </v>
  <v type="int" >      102 </v>
  <v type="int" >      118 </v>
  <v type="int" >       38 </v>
  <v type="int" >       40 </v>
  <v type="int" >       45 </v>
  <v type="int" >       78 </v>
  <v type="int" >       70 </v>
  <v type="int" >       72 </v>
  <v type="int" >       57 </v>
  <v type="int" >       59 </v>
  <v type="int" >       51 </v>
  <v type="int" >       55 </v>
  <v type="int" >       58 </v>
  <v type="int" >       60 </v>
  <v type="int" >       77 </v>
  <v type="int" >       46 </v>
  <v type="int" >      165 </v>
  <v type="int" >      167 </v>
  <v type="int" >      173 </v>
  <v type="int" >      158 </v>
  <v type="int" >      150 </v>
  <v type="int" >      152 </v>
  <v type="int" >      157 </v>
  <v type="int" >       50 </v>
  <v type="int" >       61 </v>
  <v type="int" >       63 </v>
  <v type="int" >      174 </v>
  <v type="int" >       62 </v>
  <v type="int" >       64 </v>
  <v type="int" >       52 </v>
  <v type="int" >       56 </v>
  <v type="int" >       53 </v>
  <v type="int" >       54 </v>
 </varray>
 <kpoints>
  <generation param="Gamma">
   <v type="int" name="divisions">       1        1        1 </v>
   <v name="usershift">      0.00000000       0.00000000       0.00000000 </v>
   <v name="genvec1">      1.00000000       0.00000000       0.00000000 </v>
   <v name="genvec2">      0.00000000       1.00000000       0.00000000 </v>
   <v name="genvec3">      0.00000000       0.00000000       1.00000000 </v>
   <v name="shift">      0.00000000       0.00000000       0.00000000 </v>
  </generation>
  <varray name="kpointlist" >
   <v>       0.00000000       0.00000000       0.00000000 </v>
  </varray>
  <varray name="weights" >
   <v>       1.00000000 </v>
  </varray>
 </kpoints>
 <parameters>
  <separator name="general" >
   <i type="string" name="SYSTEM">CBW</i>
   <i type="logical" name="LCOMPAT"> F  </i>
  </separator>
  <separator name="electronic" >
   <i type="string" name="PREC">accura</i>
   <i name="ENMAX">    500.00000000</i>
   <i name="ENAUG">    644.87300000</i>
   <i name="EDIFF">      0.00000100</i>
   <i type="int" name="IALGO">    68</i>
   <i type="int" name="IWAVPR">    10</i>
   <i type="int" name="NBANDS">   906</i>
   <i name="NELECT">   1504.00000000</i>
   <i type="int" name="TURBO">     0</i>
   <i type="int" name="IRESTART">     0</i>
   <i type="int" name="NREBOOT">     0</i>
   <i type="int" name="NMIN">     0</i>
   <i name="EREF">      0.00000000</i>
   <separator name="electronic smearing" >
    <i type="int" name="ISMEAR">     0</i>
    <i name="SIGMA">      0.01000000</i>
    <i name="KSPACING">      0.50000000</i>
    <i type="logical" name="KGAMMA"> T  </i>
   </separator>
   <separator name="electronic projectors" >
    <i type="logical" name="LREAL"> F  </i>
    <v name="ROPT">      0.00000000      0.00000000      0.00000000</v>
    <i type="int" name="LMAXPAW">  -100</i>
    <i type="int" name="LMAXMIX">     2</i>
    <i type="logical" name="NLSPLINE"> F  </i>
   </separator>
   <separator name="electronic startup" >
    <i type="int" name="ISTART">     0</i>
    <i type="int" name="ICHARG">     2</i>
    <i type="int" name="INIWAV">     1</i>
   </separator>
   <separator name="electronic spin" >
    <i type="int" name="ISPIN">     1</i>
    <i type="logical" name="LNONCOLLINEAR"> F  </i>
    <v name="MAGMOM">      1.00000000      1.00000000      1.00000000      1.00000000      1.00000000      1.00000000      1.00000000      1.00000000      1.00000000      1.00000000      1.00000000      1.00000000      1.00000000      1.00000000      1.00000000      1.00000000      1.00000000      1.00000000      1.00000000      1.00000000
      1.00000000      1.00000000      1.00000000      1.00000000      1.00000000      1.00000000      1.00000000      1.00000000      1.00000000      1.00000000      1.00000000      1.00000000      1.00000000      1.00000000      1.00000000      1.00000000      1.00000000      1.00000000      1.00000000      1.00000000
      1.00000000      1.00000000      1.00000000      1.00000000      1.00000000      1.00000000      1.00000000      1.00000000      1.00000000      1.00000000      1.00000000      1.00000000      1.00000000      1.00000000      1.00000000      1.00000000      1.00000000      1.00000000      1.00000000      1.00000000
      1.00000000      1.00000000      1.00000000      1.00000000      1.00000000      1.00000000      1.00000000      1.00000000      1.00000000      1.00000000      1.00000000      1.00000000      1.00000000      1.00000000      1.00000000      1.00000000      1.00000000      1.00000000      1.00000000      1.00000000
      1.00000000      1.00000000      1.00000000      1.00000000      1.00000000      1.00000000      1.00000000      1.00000000      1.00000000      1.00000000      1.00000000      1.00000000      1.00000000      1.00000000      1.00000000      1.00000000      1.00000000      1.00000000      1.00000000      1.00000000
      1.00000000      1.00000000      1.00000000      1.00000000      1.00000000      1.00000000      1.00000000      1.00000000      1.00000000      1.00000000      1.00000000      1.00000000      1.00000000      1.00000000      1.00000000      1.00000000      1.00000000      1.00000000      1.00000000      1.00000000
      1.00000000      1.00000000      1.00000000      1.00000000      1.00000000      1.00000000      1.00000000      1.00000000      1.00000000      1.00000000      1.00000000      1.00000000      1.00000000      1.00000000      1.00000000      1.00000000      1.00000000      1.00000000      1.00000000      1.00000000
      1.00000000      1.00000000      1.00000000      1.00000000      1.00000000      1.00000000      1.00000000      1.00000000      1.00000000      1.00000000      1.00000000      1.00000000      1.00000000      1.00000000      1.00000000      1.00000000      1.00000000      1.00000000      1.00000000      1.00000000
      1.00000000      1.00000000      1.00000000      1.00000000      1.00000000      1.00000000      1.00000000      1.00000000      1.00000000      1.00000000      1.00000000      1.00000000      1.00000000      1.00000000      1.00000000      1.00000000      1.00000000      1.00000000      1.00000000      1.00000000
      1.00000000      1.00000000      1.00000000      1.00000000      1.00000000      1.00000000      1.00000000      1.00000000      1.00000000      1.00000000      1.00000000      1.00000000</v>
    <i name="NUPDOWN">     -1.00000000</i>
    <i type="logical" name="LSORBIT"> F  </i>
    <v name="SAXIS">      0.00000000      0.00000000      1.00000000</v>
    <i type="logical" name="LSPIRAL"> F  </i>
    <v name="QSPIRAL">      0.00000000      0.00000000      0.00000000</v>
    <i type="logical" name="LZEROZ"> F  </i>
   </separator>
   <separator name="electronic exchange-correlation" >
    <i type="logical" name="LASPH"> F  </i>
    <i type="logical" name="LMETAGGA"> F  </i>
   </separator>
   <separator name="electronic convergence" >
    <i type="int" name="NELM">    60</i>
    <i type="int" name="NELMDL">    -5</i>
    <i type="int" name="NELMIN">     2</i>
    <i name="ENINI">    500.00000000</i>
    <separator name="electronic convergence detail" >
     <i type="logical" name="LDIAG"> T  </i>
     <i type="logical" name="LSUBROT"> F  </i>
     <i name="WEIMIN">      0.00000000</i>
     <i name="EBREAK">      0.00000000</i>
     <i name="DEPER">      0.30000000</i>
     <i type="int" name="NRMM">     4</i>
     <i name="TIME">      0.40000000</i>
    </separator>
   </separator>
   <separator name="electronic mixer" >
    <i name="AMIX">      0.40000000</i>
    <i name="BMIX">      1.00000000</i>
    <i name="AMIN">      0.10000000</i>
    <i name="AMIX_MAG">      1.60000000</i>
    <i name="BMIX_MAG">      1.00000000</i>
    <separator name="electronic mixer details" >
     <i type="int" name="IMIX">     4</i>
     <i type="logical" name="MIXFIRST"> F  </i>
     <i type="int" name="MAXMIX">   -45</i>
     <i name="WC">    100.00000000</i>
     <i type="int" name="INIMIX">     1</i>
     <i type="int" name="MIXPRE">     1</i>
     <i type="int" name="MREMOVE">     5</i>
    </separator>
   </separator>
   <separator name="electronic dipolcorrection" >
    <i type="logical" name="LDIPOL"> F  </i>
    <i type="logical" name="LMONO"> F  </i>
    <i type="int" name="IDIPOL">     0</i>
    <i name="EPSILON">      1.00000000</i>
    <v name="DIPOL">   -100.00000000   -100.00000000   -100.00000000</v>
    <i name="EFIELD">      0.00000000</i>
   </separator>
  </separator>
  <separator name="grids" >
   <i type="int" name="NGX">    80</i>
   <i type="int" name="NGY">    90</i>
   <i type="int" name="NGZ">   140</i>
   <i type="int" name="NGXF">   160</i>
   <i type="int" name="NGYF">   180</i>
   <i type="int" name="NGZF">   280</i>
   <i type="logical" name="ADDGRID"> F  </i>
  </separator>
  <separator name="ionic" >
   <i type="int" name="NSW">     0</i>
   <i type="int" name="IBRION">    -1</i>
   <i type="int" name="MDALGO">     0</i>
   <i type="int" name="ISIF">     2</i>
   <i name="PSTRESS">      0.00000000</i>
   <i name="EDIFFG">      0.00001000</i>
   <i type="int" name="NFREE">     1</i>
   <i name="POTIM">      0.50000000</i>
   <i name="SMASS">     -3.00000000</i>
   <i name="SCALEE">      1.00000000</i>
  </separator>
  <separator name="ionic md" >
   <i name="TEBEG">      0.00010000</i>
   <i name="TEEND">      0.00010000</i>
   <i type="int" name="NBLOCK">     1</i>
   <i type="int" name="KBLOCK">     1</i>
   <i type="int" name="NPACO">   256</i>
   <i name="APACO">     16.00000000</i>
  </separator>
  <separator name="symmetry" >
   <i type="int" name="ISYM">     2</i>
   <i name="SYMPREC">      0.00001000</i>
  </separator>
  <separator name="dos" >
   <i type="int" name="LORBIT">     0</i>
   <v name="RWIGS">     -1.00000000     -1.00000000     -1.00000000</v>
   <i type="int" name="NEDOS">   301</i>
   <i name="EMIN">     10.00000000</i>
   <i name="EMAX">    -10.00000000</i>
   <i name="EFERMI">      0.00000000</i>
  </separator>
  <separator name="writing" >
   <i type="int" name="NWRITE">     2</i>
   <i type="logical" name="LWAVE"> F  </i>
   <i type="logical" name="LDOWNSAMPLE"> F  </i>
   <i type="logical" name="LCHARG"> F  </i>
   <i type="logical" name="LPARD"> F  </i>
   <i type="logical" name="LVTOT"> F  </i>
   <i type="logical" name="LVHAR"> F  </i>
   <i type="logical" name="LELF"> F  </i>
   <i type="logical" name="LOPTICS"> F  </i>
   <v name="STM">      0.00000000      0.00000000      0.00000000      0.00000000      0.00000000      0.00000000      0.00000000</v>
  </separator>
  <separator name="performance" >
   <i type="int" name="NPAR">     6</i>
   <i type="int" name="NSIM">     4</i>
   <i type="int" name="NBLK">    -1</i>
   <i type="logical" name="LPLANE"> T  </i>
   <i type="logical" name="LSCALAPACK"> F  </i>
   <i type="logical" name="LSCAAWARE"> F  </i>
   <i type="logical" name="LSCALU"> F  </i>
   <i type="logical" name="LASYNC"> F  </i>
   <i type="logical" name="LORBITALREAL"> F  </i>
  </separator>
  <separator name="miscellaneous" >
   <i type="int" name="IDIOT">     3</i>
   <i type="int" name="ISPECIAL">     0</i>
   <i type="logical" name="LMUSIC"> F  </i>
   <v name="POMASS">     47.88000000     26.98100000     12.01100000</v>
   <v name="DARWINR">      0.00000000      0.00000000      0.00000000</v>
   <v name="DARWINV">      1.00000000      1.00000000      1.00000000</v>
   <i type="logical" name="LCORR"> T  </i>
  </separator>
  <i type="logical" name="GGA_COMPAT"> T  </i>
  <i type="logical" name="LBERRY"> F  </i>
  <i type="int" name="ICORELEVEL">     0</i>
  <i type="logical" name="LDAU"> F  </i>
  <i type="int" name="I_CONSTRAINED_M">     0</i>
  <separator name="electronic exchange-correlation" >
   <i type="string" name="GGA">--</i>
   <i type="int" name="VOSKOWN">     0</i>
   <i type="logical" name="LHFCALC"> F  </i>
   <i type="string" name="PRECFOCK"></i>
   <i type="logical" name="LSYMGRAD"> F  </i>
   <i type="logical" name="LHFONE"> F  </i>
   <i type="logical" name="LRHFCALC"> F  </i>
   <i type="logical" name="LTHOMAS"> F  </i>
   <i type="logical" name="LMODELHF"> F  </i>
   <i name="ENCUT4O">     -1.00000000</i>
   <i type="int" name="EXXOEP">     0</i>
   <i type="int" name="FOURORBIT">     0</i>
   <i name="AEXX">      0.00000000</i>
   <i name="HFALPHA">      0.00000000</i>
   <i name="MCALPHA">      0.00000000</i>
   <i name="ALDAX">      1.00000000</i>
   <i name="AGGAX">      1.00000000</i>
   <i name="ALDAC">      1.00000000</i>
   <i name="AGGAC">      1.00000000</i>
   <i type="int" name="NKREDX">     1</i>
   <i type="int" name="NKREDY">     1</i>
   <i type="int" name="NKREDZ">     1</i>
   <i type="logical" name="SHIFTRED"> F  </i>
   <i type="logical" name="ODDONLY"> F  </i>
   <i type="logical" name="EVENONLY"> F  </i>
   <i type="int" name="LMAXFOCK">     0</i>
   <i type="int" name="NMAXFOCKAE">     0</i>
   <i type="logical" name="LFOCKAEDFT"> F  </i>
   <i name="HFSCREEN">      0.00000000</i>
   <i name="HFSCREENC">      0.00000000</i>
   <i type="int" name="NBANDSGWLOW">     0</i>
  </separator>
  <separator name="vdW DFT" >
   <i type="logical" name="LUSE_VDW"> F  </i>
   <i name="Zab_VDW">     -0.84910000</i>
   <i name="PARAM1">      0.12340000</i>
   <i name="PARAM2">      1.00000000</i>
   <i name="PARAM3">      0.00000000</i>
  </separator>
  <separator name="model GW" >
   <i type="int" name="MODEL_GW">     0</i>
   <i name="MODEL_EPS0">      7.65962185</i>
   <i name="MODEL_ALPHA">      1.00000000</i>
  </separator>
  <separator name="linear response parameters" >
   <i type="logical" name="LEPSILON"> F  </i>
   <i type="logical" name="LRPA"> F  </i>
   <i type="logical" name="LNABLA"> F  </i>
   <i type="logical" name="LVEL"> F  </i>
   <i type="int" name="KINTER">     0</i>
   <i name="CSHIFT">      0.10000000</i>
   <i name="OMEGAMAX">     -1.00000000</i>
   <i name="DEG_THRESHOLD">      0.00200000</i>
   <i name="RTIME">     -0.10000000</i>
   <i name="WPLASMAI">      0.00000000</i>
   <v name="DFIELD">      0.00000000      0.00000000      0.00000000</v>
   <v name="WPLASMA">      0.00000000      0.00000000      0.00000000      0.00000000      0.00000000      0.00000000      0.00000000      0.00000000      0.00000000</v>
  </separator>
  <separator name="orbital magnetization" >
   <i type="logical" name="NUCIND"> F  </i>
   <v name="MAGPOS">      0.00000000      0.00000000      0.00000000</v>
   <i type="logical" name="LNICSALL"> T  </i>
   <i type="logical" name="ORBITALMAG"> F  </i>
   <i type="logical" name="LMAGBLOCH"> F  </i>
   <i type="logical" name="LCHIMAG"> F  </i>
   <i type="logical" name="LGAUGE"> T  </i>
   <i type="int" name="MAGATOM">     0</i>
   <v name="MAGDIPOL">      0.00000000      0.00000000      0.00000000</v>
   <v name="AVECCONST">      0.00000000      0.00000000      0.00000000</v>
  </separator>
  <separator name="response functions" >
   <i type="logical" name="LADDER"> F  </i>
   <i type="logical" name="LRPAFORCE"> F  </i>
   <i type="logical" name="LFXC"> F  </i>
   <i type="logical" name="LHARTREE"> T  </i>
   <i type="int" name="IBSE">     0</i>
   <v type="int" name="KPOINT">    -1     0     0     0</v>
   <i type="logical" name="LTCTE"> F  </i>
   <i type="logical" name="LTETE"> F  </i>
   <i type="logical" name="LTRIPLET"> F  </i>
   <i type="logical" name="LFXCEPS"> F  </i>
   <i type="logical" name="LFXHEG"> F  </i>
   <i type="int" name="NATURALO">     2</i>
   <i type="logical" name="L2ORDER"> F  </i>
   <i type="logical" name="LMP2LT"> F  </i>
   <i type="logical" name="LUSEW"> F  </i>
   <i name="ENCUTGW">     -2.00000000</i>
   <i name="ENCUTGWSOFT">     -2.00000000</i>
   <i name="ENCUTLF">     -1.00000000</i>
   <i type="int" name="LMAXMP2">    -1</i>
   <i name="SCISSOR">      0.00000000</i>
   <i type="int" name="NOMEGA">     0</i>
   <i type="int" name="NOMEGAR">     0</i>
   <i type="int" name="NBANDSGW">    -1</i>
   <i type="int" name="NBANDSO">    -1</i>
   <i type="int" name="NBANDSV">    -1</i>
   <i type="int" name="NELM">     1</i>
   <i type="int" name="NELMHF">     1</i>
   <i type="int" name="DIM">     3</i>
   <i type="int" name="ANTIRES">     0</i>
   <i name="OMEGAMAX">    -30.00000000</i>
   <i name="OMEGAMIN">    -30.00000000</i>
   <i name="OMEGATL">   -200.00000000</i>
   <i type="int" name="OMEGAGRID">   140</i>
   <i name="CSHIFT">     -0.10000000</i>
   <i type="logical" name="SELFENERGY"> F  </i>
   <i type="logical" name="LSPECTRAL"> F  </i>
   <i type="logical" name="LSPECTRALGW"> F  </i>
   <i type="logical" name="LSINGLES"> F  </i>
   <i type="logical" name="LFERMIGW"> F  </i>
   <i type="logical" name="ODDONLYGW"> F  </i>
   <i type="logical" name="EVENONLYGW"> F  </i>
   <i type="int" name="NKREDLFX">     1</i>
   <i type="int" name="NKREDLFY">     1</i>
   <i type="int" name="NKREDLFZ">     1</i>
   <i type="int" name="MAXMEM">  2800</i>
   <i type="int" name="TELESCOPE">     0</i>
   <i type="int" name="TAUPAR">     1</i>
   <i type="int" name="OMEGAPAR">    -1</i>
   <i name="LAMBDA">      1.00000000</i>
  </separator>
  <separator name="External order field" >
   <i name="OFIELD_KAPPA">      0.00000000</i>
   <v name="OFIELD_K">      0.00000000      0.00000000      0.00000000</v>
   <i name="OFIELD_Q6_NEAR">      0.00000000</i>
   <i name="OFIELD_Q6_FAR">      0.00000000</i>
   <i name="OFIELD_A">      0.00000000</i>
  </separator>
 </parameters>
 <atominfo>
  <atoms>     192 </atoms>
  <types>       3 </types>
  <array name="atoms" >
   <dimension dim="1">ion</dimension>
   <field type="string">element</field>
   <field type="int">atomtype</field>
   <set>
    <rc><c>Ti</c><c>   1</c></rc>
    <rc><c>Ti</c><c>   1</c></rc>
    <rc><c>Ti</c><c>   1</c></rc>
    <rc><c>Ti</c><c>   1</c></rc>
    <rc><c>Ti</c><c>   1</c></rc>
    <rc><c>Ti</c><c>   1</c></rc>
    <rc><c>Ti</c><c>   1</c></rc>
    <rc><c>Ti</c><c>   1</c></rc>
    <rc><c>Ti</c><c>   1</c></rc>
    <rc><c>Ti</c><c>   1</c></rc>
    <rc><c>Ti</c><c>   1</c></rc>
    <rc><c>Ti</c><c>   1</c></rc>
    <rc><c>Ti</c><c>   1</c></rc>
    <rc><c>Ti</c><c>   1</c></rc>
    <rc><c>Ti</c><c>   1</c></rc>
    <rc><c>Ti</c><c>   1</c></rc>
    <rc><c>Ti</c><c>   1</c></rc>
    <rc><c>Ti</c><c>   1</c></rc>
    <rc><c>Ti</c><c>   1</c></rc>
    <rc><c>Ti</c><c>   1</c></rc>
    <rc><c>Ti</c><c>   1</c></rc>
    <rc><c>Ti</c><c>   1</c></rc>
    <rc><c>Ti</c><c>   1</c></rc>
    <rc><c>Ti</c><c>   1</c></rc>
    <rc><c>Ti</c><c>   1</c></rc>
    <rc><c>Ti</c><c>   1</c></rc>
    <rc><c>Ti</c><c>   1</c></rc>
    <rc><c>Ti</c><c>   1</c></rc>
    <rc><c>Ti</c><c>   1</c></rc>
    <rc><c>Ti</c><c>   1</c></rc>
    <rc><c>Ti</c><c>   1</c></rc>
    <rc><c>Ti</c><c>   1</c></rc>
    <rc><c>Ti</c><c>   1</c></rc>
    <rc><c>Ti</c><c>   1</c></rc>
    <rc><c>Ti</c><c>   1</c></rc>
    <rc><c>Ti</c><c>   1</c></rc>
    <rc><c>Ti</c><c>   1</c></rc>
    <rc><c>Ti</c><c>   1</c></rc>
    <rc><c>Ti</c><c>   1</c></rc>
    <rc><c>Ti</c><c>   1</c></rc>
    <rc><c>Ti</c><c>   1</c></rc>
    <rc><c>Ti</c><c>   1</c></rc>
    <rc><c>Ti</c><c>   1</c></rc>
    <rc><c>Ti</c><c>   1</c></rc>
    <rc><c>Ti</c><c>   1</c></rc>
    <rc><c>Ti</c><c>   1</c></rc>
    <rc><c>Ti</c><c>   1</c></rc>
    <rc><c>Ti</c><c>   1</c></rc>
    <rc><c>Ti</c><c>   1</c></rc>
    <rc><c>Ti</c><c>   1</c></rc>
    <rc><c>Ti</c><c>   1</c></rc>
    <rc><c>Ti</c><c>   1</c></rc>
    <rc><c>Ti</c><c>   1</c></rc>
    <rc><c>Ti</c><c>   1</c></rc>
    <rc><c>Ti</c><c>   1</c></rc>
    <rc><c>Ti</c><c>   1</c></rc>
    <rc><c>Ti</c><c>   1</c></rc>
    <rc><c>Ti</c><c>   1</c></rc>
    <rc><c>Ti</c><c>   1</c></rc>
    <rc><c>Ti</c><c>   1</c></rc>
    <rc><c>Ti</c><c>   1</c></rc>
    <rc><c>Ti</c><c>   1</c></rc>
    <rc><c>Ti</c><c>   1</c></rc>
    <rc><c>Ti</c><c>   1</c></rc>
    <rc><c>Ti</c><c>   1</c></rc>
    <rc><c>Ti</c><c>   1</c></rc>
    <rc><c>Ti</c><c>   1</c></rc>
    <rc><c>Ti</c><c>   1</c></rc>
    <rc><c>Ti</c><c>   1</c></rc>
    <rc><c>Ti</c><c>   1</c></rc>
    <rc><c>Ti</c><c>   1</c></rc>
    <rc><c>Ti</c><c>   1</c></rc>
    <rc><c>Ti</c><c>   1</c></rc>
    <rc><c>Ti</c><c>   1</c></rc>
    <rc><c>Ti</c><c>   1</c></rc>
    <rc><c>Ti</c><c>   1</c></rc>
    <rc><c>Ti</c><c>   1</c></rc>
    <rc><c>Ti</c><c>   1</c></rc>
    <rc><c>Ti</c><c>   1</c></rc>
    <rc><c>Ti</c><c>   1</c></rc>
    <rc><c>Ti</c><c>   1</c></rc>
    <rc><c>Ti</c><c>   1</c></rc>
    <rc><c>Ti</c><c>   1</c></rc>
    <rc><c>Ti</c><c>   1</c></rc>
    <rc><c>Ti</c><c>   1</c></rc>
    <rc><c>Ti</c><c>   1</c></rc>
    <rc><c>Ti</c><c>   1</c></rc>
    <rc><c>Ti</c><c>   1</c></rc>
    <rc><c>Ti</c><c>   1</c></rc>
    <rc><c>Ti</c><c>   1</c></rc>
    <rc><c>Ti</c><c>   1</c></rc>
    <rc><c>Ti</c><c>   1</c></rc>
    <rc><c>Ti</c><c>   1</c></rc>
    <rc><c>Ti</c><c>   1</c></rc>
    <rc><c>Ti</c><c>   1</c></rc>
    <rc><c>Ti</c><c>   1</c></rc>
    <rc><c>Al</c><c>   2</c></rc>
    <rc><c>Al</c><c>   2</c></rc>
    <rc><c>Al</c><c>   2</c></rc>
    <rc><c>Al</c><c>   2</c></rc>
    <rc><c>Al</c><c>   2</c></rc>
    <rc><c>Al</c><c>   2</c></rc>
    <rc><c>Al</c><c>   2</c></rc>
    <rc><c>Al</c><c>   2</c></rc>
    <rc><c>Al</c><c>   2</c></rc>
    <rc><c>Al</c><c>   2</c></rc>
    <rc><c>Al</c><c>   2</c></rc>
    <rc><c>Al</c><c>   2</c></rc>
    <rc><c>Al</c><c>   2</c></rc>
    <rc><c>Al</c><c>   2</c></rc>
    <rc><c>Al</c><c>   2</c></rc>
    <rc><c>Al</c><c>   2</c></rc>
    <rc><c>Al</c><c>   2</c></rc>
    <rc><c>Al</c><c>   2</c></rc>
    <rc><c>Al</c><c>   2</c></rc>
    <rc><c>Al</c><c>   2</c></rc>
    <rc><c>Al</c><c>   2</c></rc>
    <rc><c>Al</c><c>   2</c></rc>
    <rc><c>Al</c><c>   2</c></rc>
    <rc><c>Al</c><c>   2</c></rc>
    <rc><c>Al</c><c>   2</c></rc>
    <rc><c>Al</c><c>   2</c></rc>
    <rc><c>Al</c><c>   2</c></rc>
    <rc><c>Al</c><c>   2</c></rc>
    <rc><c>Al</c><c>   2</c></rc>
    <rc><c>Al</c><c>   2</c></rc>
    <rc><c>Al</c><c>   2</c></rc>
    <rc><c>Al</c><c>   2</c></rc>
    <rc><c>C </c><c>   3</c></rc>
    <rc><c>C </c><c>   3</c></rc>
    <rc><c>C </c><c>   3</c></rc>
    <rc><c>C </c><c>   3</c></rc>
    <rc><c>C </c><c>   3</c></rc>
    <rc><c>C </c><c>   3</c></rc>
    <rc><c>C </c><c>   3</c></rc>
    <rc><c>C </c><c>   3</c></rc>
    <rc><c>C </c><c>   3</c></rc>
    <rc><c>C </c><c>   3</c></rc>
    <rc><c>C </c><c>   3</c></rc>
    <rc><c>C </c><c>   3</c></rc>
    <rc><c>C </c><c>   3</c></rc>
    <rc><c>C </c><c>   3</c></rc>
    <rc><c>C </c><c>   3</c></rc>
    <rc><c>C </c><c>   3</c></rc>
    <rc><c>C </c><c>   3</c></rc>
    <rc><c>C </c><c>   3</c></rc>
    <rc><c>C </c><c>   3</c></rc>
    <rc><c>C </c><c>   3</c></rc>
    <rc><c>C </c><c>   3</c></rc>
    <rc><c>C </c><c>   3</c></rc>
    <rc><c>C </c><c>   3</c></rc>
    <rc><c>C </c><c>   3</c></rc>
    <rc><c>C </c><c>   3</c></rc>
    <rc><c>C </c><c>   3</c></rc>
    <rc><c>C </c><c>   3</c></rc>
    <rc><c>C </c><c>   3</c></rc>
    <rc><c>C </c><c>   3</c></rc>
    <rc><c>C </c><c>   3</c></rc>
    <rc><c>C </c><c>   3</c></rc>
    <rc><c>C </c><c>   3</c></rc>
    <rc><c>C </c><c>   3</c></rc>
    <rc><c>C </c><c>   3</c></rc>
    <rc><c>C </c><c>   3</c></rc>
    <rc><c>C </c><c>   3</c></rc>
    <rc><c>C </c><c>   3</c></rc>
    <rc><c>C </c><c>   3</c></rc>
    <rc><c>C </c><c>   3</c></rc>
    <rc><c>C </c><c>   3</c></rc>
    <rc><c>C </c><c>   3</c></rc>
    <rc><c>C </c><c>   3</c></rc>
    <rc><c>C </c><c>   3</c></rc>
    <rc><c>C </c><c>   3</c></rc>
    <rc><c>C </c><c>   3</c></rc>
    <rc><c>C </c><c>   3</c></rc>
    <rc><c>C </c><c>   3</c></rc>
    <rc><c>C </c><c>   3</c></rc>
    <rc><c>C </c><c>   3</c></rc>
    <rc><c>C </c><c>   3</c></rc>
    <rc><c>C </c><c>   3</c></rc>
    <rc><c>C </c><c>   3</c></rc>
    <rc><c>C </c><c>   3</c></rc>
    <rc><c>C </c><c>   3</c></rc>
    <rc><c>C </c><c>   3</c></rc>
    <rc><c>C </c><c>   3</c></rc>
    <rc><c>C </c><c>   3</c></rc>
    <rc><c>C </c><c>   3</c></rc>
    <rc><c>C </c><c>   3</c></rc>
    <rc><c>C </c><c>   3</c></rc>
    <rc><c>C </c><c>   3</c></rc>
    <rc><c>C </c><c>   3</c></rc>
    <rc><c>C </c><c>   3</c></rc>
    <rc><c>C </c><c>   3</c></rc>
   </set>
  </array>
  <array name="atomtypes" >
   <dimension dim="1">type</dimension>
   <field type="int">atomspertype</field>
   <field type="string">element</field>
   <field>mass</field>
   <field>valence</field>
   <field type="string">pseudopotential</field>
   <set>
    <rc><c>  96</c><c>Ti</c><c>     47.88000000</c><c>     12.00000000</c><c>  PAW_PBE Ti_sv 26Sep2005               </c></rc>
    <rc><c>  32</c><c>Al</c><c>     26.98100000</c><c>      3.00000000</c><c>  PAW_PBE Al 04Jan2001                  </c></rc>
    <rc><c>  64</c><c>C </c><c>     12.01100000</c><c>      4.00000000</c><c>  PAW_PBE C 08Apr2002                   </c></rc>
   </set>
  </array>
 </atominfo>
 <structure name="initialpos" >
  <crystal>
   <varray name="basis" >
    <v>      10.66614950       0.00000000       0.00000000 </v>
    <v>       0.00000000      12.31618458       0.00000000 </v>
    <v>       0.00000000       0.00000000      18.65835931 </v>
   </varray>
   <i name="volume">   2451.07899282 </i>
   <varray name="rec_basis" >
    <v>       0.09375455       0.00000000       0.00000000 </v>
    <v>       0.00000000       0.08119398       0.00000000 </v>
    <v>       0.00000000       0.00000000       0.05359528 </v>
   </varray>
  </crystal>
  <varray name="positions" >
   <v>       0.08614597       0.12500000       0.00000000 </v>
   <v>       0.58333333       0.12500000       0.00000000 </v>
   <v>       0.08333333       0.37743582       0.00000000 </v>
   <v>       0.58333333       0.37500000       0.00000000 </v>
   <v>       0.08333333       0.62500000       0.00000000 </v>
   <v>       0.58333333       0.62500000       0.00000000 </v>
   <v>       0.08333333       0.87500000       0.00000000 </v>
   <v>       0.58333333       0.87500000       0.00000000 </v>
   <v>       0.33333333       0.00000000       0.00000000 </v>
   <v>       0.83333333       0.00000000       0.00000000 </v>
   <v>       0.33333333       0.25000000       0.00000000 </v>
   <v>       0.83333333       0.25000000       0.00000000 </v>
   <v>       0.33333333       0.50000000       0.00000000 </v>
   <v>       0.83333333       0.50000000       0.00000000 </v>
   <v>       0.33333333       0.75000000       0.00000000 </v>
   <v>       0.83333333       0.75000000       0.00000000 </v>
   <v>       0.00000470       0.00000000       0.12690106 </v>
   <v>       0.50000470       0.00000000       0.12690106 </v>
   <v>       0.00000470       0.25000000       0.12690106 </v>
   <v>       0.50000470       0.25000000       0.12690106 </v>
   <v>       0.00000470       0.50000000       0.12690106 </v>
   <v>       0.50000470       0.50000000       0.12690106 </v>
   <v>       0.00000470       0.75000000       0.12690106 </v>
   <v>       0.50000470       0.75000000       0.12690106 </v>
   <v>       0.25000470       0.12500000       0.12690106 </v>
   <v>       0.75000470       0.12500000       0.12690106 </v>
   <v>       0.25000470       0.37500000       0.12690106 </v>
   <v>       0.75000470       0.37500000       0.12690106 </v>
   <v>       0.25000470       0.62500000       0.12690106 </v>
   <v>       0.75000470       0.62500000       0.12690106 </v>
   <v>       0.25000470       0.87500000       0.12690106 </v>
   <v>       0.75000470       0.87500000       0.12690106 </v>
   <v>       0.00000470       0.00000000       0.37309894 </v>
   <v>       0.50000470       0.00000000       0.37309894 </v>
   <v>       0.00000470       0.25000000       0.37309894 </v>
   <v>       0.50000470       0.25000000       0.37309894 </v>
   <v>       0.00000470       0.50000000       0.37309894 </v>
   <v>       0.50000470       0.50000000       0.37309894 </v>
   <v>       0.00000470       0.75000000       0.37309894 </v>
   <v>       0.50000470       0.75000000       0.37309894 </v>
   <v>       0.25000470       0.12500000       0.37309894 </v>
   <v>       0.75000470       0.12500000       0.37309894 </v>
   <v>       0.25000470       0.37500000       0.37309894 </v>
   <v>       0.75000470       0.37500000       0.37309894 </v>
   <v>       0.25000470       0.62500000       0.37309894 </v>
   <v>       0.75000470       0.62500000       0.37309894 </v>
   <v>       0.25000470       0.87500000       0.37309894 </v>
   <v>       0.75000470       0.87500000       0.37309894 </v>
   <v>       0.08333333       0.12500000       0.50000000 </v>
   <v>       0.58333333       0.12500000       0.50000000 </v>
   <v>       0.08333333       0.37500000       0.50000000 </v>
   <v>       0.58333333       0.37500000       0.50000000 </v>
   <v>       0.08333333       0.62500000       0.50000000 </v>
   <v>       0.58333333       0.62500000       0.50000000 </v>
   <v>       0.08333333       0.87500000       0.50000000 </v>
   <v>       0.58333333       0.87500000       0.50000000 </v>
   <v>       0.33333333       0.00000000       0.50000000 </v>
   <v>       0.83333333       0.00000000       0.50000000 </v>
   <v>       0.33333333       0.25000000       0.50000000 </v>
   <v>       0.83333333       0.25000000       0.50000000 </v>
   <v>       0.33333333       0.50000000       0.50000000 </v>
   <v>       0.83333333       0.50000000       0.50000000 </v>
   <v>       0.33333333       0.75000000       0.50000000 </v>
   <v>       0.83333333       0.75000000       0.50000000 </v>
   <v>       0.16666197       0.00000000       0.62690106 </v>
   <v>       0.66666197       0.00000000       0.62690106 </v>
   <v>       0.16666197       0.25000000       0.62690106 </v>
   <v>       0.66666197       0.25000000       0.62690106 </v>
   <v>       0.16666197       0.50000000       0.62690106 </v>
   <v>       0.66666197       0.50000000       0.62690106 </v>
   <v>       0.16666197       0.75000000       0.62690106 </v>
   <v>       0.66666197       0.75000000       0.62690106 </v>
   <v>       0.41666197       0.12500000       0.62690106 </v>
   <v>       0.91666197       0.12500000       0.62690106 </v>
   <v>       0.41666197       0.37500000       0.62690106 </v>
   <v>       0.91666197       0.37500000       0.62690106 </v>
   <v>       0.41666197       0.62500000       0.62690106 </v>
   <v>       0.91666197       0.62500000       0.62690106 </v>
   <v>       0.41666197       0.87500000       0.62690106 </v>
   <v>       0.91666197       0.87500000       0.62690106 </v>
   <v>       0.16666197       0.00000000       0.87309894 </v>
   <v>       0.66666197       0.00000000       0.87309894 </v>
   <v>       0.16666197       0.25000000       0.87309894 </v>
   <v>       0.66666197       0.25000000       0.87309894 </v>
   <v>       0.16666197       0.50000000       0.87309894 </v>
   <v>       0.66666197       0.50000000       0.87309894 </v>
   <v>       0.16666197       0.75000000       0.87309894 </v>
   <v>       0.66666197       0.75000000       0.87309894 </v>
   <v>       0.41666197       0.12500000       0.87309894 </v>
   <v>       0.91666197       0.12500000       0.87309894 </v>
   <v>       0.41666197       0.37500000       0.87309894 </v>
   <v>       0.91666197       0.37500000       0.87309894 </v>
   <v>       0.41666197       0.62500000       0.87309894 </v>
   <v>       0.91666197       0.62500000       0.87309894 </v>
   <v>       0.41666197       0.87500000       0.87309894 </v>
   <v>       0.91666197       0.87500000       0.87309894 </v>
   <v>       0.08331678       0.12500000       0.25000000 </v>
   <v>       0.58331678       0.12500000       0.25000000 </v>
   <v>       0.08331678       0.37500000       0.25000000 </v>
   <v>       0.58331678       0.37500000       0.25000000 </v>
   <v>       0.08331678       0.62500000       0.25000000 </v>
   <v>       0.58331678       0.62500000       0.25000000 </v>
   <v>       0.08331678       0.87500000       0.25000000 </v>
   <v>       0.58331678       0.87500000       0.25000000 </v>
   <v>       0.33331678       0.00000000       0.25000000 </v>
   <v>       0.83331678       0.00000000       0.25000000 </v>
   <v>       0.33331678       0.25000000       0.25000000 </v>
   <v>       0.83331678       0.25000000       0.25000000 </v>
   <v>       0.33331678       0.50000000       0.25000000 </v>
   <v>       0.83331678       0.50000000       0.25000000 </v>
   <v>       0.33331678       0.75000000       0.25000000 </v>
   <v>       0.83331678       0.75000000       0.25000000 </v>
   <v>       0.08334988       0.12500000       0.75000000 </v>
   <v>       0.58334988       0.12500000       0.75000000 </v>
   <v>       0.08334988       0.37500000       0.75000000 </v>
   <v>       0.58334988       0.37500000       0.75000000 </v>
   <v>       0.08334988       0.62500000       0.75000000 </v>
   <v>       0.58334988       0.62500000       0.75000000 </v>
   <v>       0.08334988       0.87500000       0.75000000 </v>
   <v>       0.58334988       0.87500000       0.75000000 </v>
   <v>       0.33334988       0.00000000       0.75000000 </v>
   <v>       0.83334988       0.00000000       0.75000000 </v>
   <v>       0.33334988       0.25000000       0.75000000 </v>
   <v>       0.83334988       0.25000000       0.75000000 </v>
   <v>       0.33334988       0.50000000       0.75000000 </v>
   <v>       0.83334988       0.50000000       0.75000000 </v>
   <v>       0.33334988       0.75000000       0.75000000 </v>
   <v>       0.83334988       0.75000000       0.75000000 </v>
   <v>       0.16667346       0.00000000       0.06935992 </v>
   <v>       0.66667346       0.00000000       0.06935992 </v>
   <v>       0.16667346       0.25000000       0.06935992 </v>
   <v>       0.66667346       0.25000000       0.06935992 </v>
   <v>       0.16667346       0.50000000       0.06935992 </v>
   <v>       0.66667346       0.50000000       0.06935992 </v>
   <v>       0.16667346       0.75000000       0.06935992 </v>
   <v>       0.66667346       0.75000000       0.06935992 </v>
   <v>       0.41667346       0.12500000       0.06935992 </v>
   <v>       0.91667346       0.12500000       0.06935992 </v>
   <v>       0.41667346       0.37500000       0.06935992 </v>
   <v>       0.91667346       0.37500000       0.06935992 </v>
   <v>       0.41667346       0.62500000       0.06935992 </v>
   <v>       0.91667346       0.62500000       0.06935992 </v>
   <v>       0.41667346       0.87500000       0.06935992 </v>
   <v>       0.91667346       0.87500000       0.06935992 </v>
   <v>       0.16667346       0.00000000       0.43064008 </v>
   <v>       0.66667346       0.00000000       0.43064008 </v>
   <v>       0.16667346       0.25000000       0.43064008 </v>
   <v>       0.66667346       0.25000000       0.43064008 </v>
   <v>       0.16667346       0.50000000       0.43064008 </v>
   <v>       0.66667346       0.50000000       0.43064008 </v>
   <v>       0.16667346       0.75000000       0.43064008 </v>
   <v>       0.66667346       0.75000000       0.43064008 </v>
   <v>       0.41667346       0.12500000       0.43064008 </v>
   <v>       0.91667346       0.12500000       0.43064008 </v>
   <v>       0.41667346       0.37500000       0.43064008 </v>
   <v>       0.91667346       0.37500000       0.43064008 </v>
   <v>       0.41667346       0.62500000       0.43064008 </v>
   <v>       0.91667346       0.62500000       0.43064008 </v>
   <v>       0.41667346       0.87500000       0.43064008 </v>
   <v>       0.91667346       0.87500000       0.43064008 </v>
   <v>       0.49999320       0.00000000       0.56935992 </v>
   <v>       0.99999320       0.00000000       0.56935992 </v>
   <v>       0.49999320       0.25000000       0.56935992 </v>
   <v>       0.99999320       0.25000000       0.56935992 </v>
   <v>       0.49999320       0.50000000       0.56935992 </v>
   <v>       0.99999320       0.50000000       0.56935992 </v>
   <v>       0.49999320       0.75000000       0.56935992 </v>
   <v>       0.99999320       0.75000000       0.56935992 </v>
   <v>       0.24999320       0.12500000       0.56935992 </v>
   <v>       0.74999320       0.12500000       0.56935992 </v>
   <v>       0.24999320       0.37500000       0.56935992 </v>
   <v>       0.74999320       0.37500000       0.56935992 </v>
   <v>       0.24999320       0.62500000       0.56935992 </v>
   <v>       0.74999320       0.62500000       0.56935992 </v>
   <v>       0.24999320       0.87500000       0.56935992 </v>
   <v>       0.74999320       0.87500000       0.56935992 </v>
   <v>       0.49999320       0.00000000       0.93064008 </v>
   <v>       0.99999320       0.00000000       0.93064008 </v>
   <v>       0.49999320       0.25000000       0.93064008 </v>
   <v>       0.99999320       0.25000000       0.93064008 </v>
   <v>       0.49999320       0.50000000       0.93064008 </v>
   <v>       0.99999320       0.50000000       0.93064008 </v>
   <v>       0.49999320       0.75000000       0.93064008 </v>
   <v>       0.99999320       0.75000000       0.93064008 </v>
   <v>       0.24999320       0.12500000       0.93064008 </v>
   <v>       0.74999320       0.12500000       0.93064008 </v>
   <v>       0.24999320       0.37500000       0.93064008 </v>
   <v>       0.74999320       0.37500000       0.93064008 </v>
   <v>       0.24999320       0.62500000       0.93064008 </v>
   <v>       0.74999320       0.62500000       0.93064008 </v>
   <v>       0.24999320       0.87500000       0.93064008 </v>
   <v>       0.74999320       0.87500000       0.93064008 </v>
  </varray>
 </structure>
 <calculation>
  <scstep>
   <time name="dav">   24.10   24.15</time>
   <time name="total">   24.28   24.35</time>
   <energy>
    <i name="alphaZ">   5664.94605771 </i>
    <i name="ewald"> -94353.70659512 </i>
    <i name="hartreedc"> -67506.24777060 </i>
    <i name="XCdc">   5990.23538471 </i>
    <i name="pawpsdc"> 130462.07430752 </i>
    <i name="pawaedc">-127595.82181876 </i>
    <i name="eentropy">     -0.00001762 </i>
    <i name="bandstr">   6597.60606721 </i>
    <i name="atom"> 163586.84737721 </i>
    <i name="e_fr_energy">  22845.93299225 </i>
    <i name="e_wo_entrp">  22845.93300988 </i>
    <i name="e_0_energy">  22845.93300107 </i>
   </energy>
  </scstep>
  <scstep>
   <time name="dav">   24.57   24.67</time>
   <time name="total">   24.57   24.67</time>
   <energy>
    <i name="e_fr_energy">   2364.39531732 </i>
    <i name="e_wo_entrp">   2364.39715918 </i>
    <i name="e_0_energy">   2364.39623825 </i>
   </energy>
  </scstep>
  <scstep>
   <time name="dav">   31.57   31.59</time>
   <time name="total">   31.57   31.59</time>
   <energy>
    <i name="e_fr_energy">  -1453.88134196 </i>
    <i name="e_wo_entrp">  -1453.88132345 </i>
    <i name="e_0_energy">  -1453.88133271 </i>
   </energy>
  </scstep>
  <scstep>
   <time name="dav">   32.72   32.90</time>
   <time name="total">   32.72   32.90</time>
   <energy>
    <i name="e_fr_energy">  -2000.67813783 </i>
    <i name="e_wo_entrp">  -2000.67813760 </i>
    <i name="e_0_energy">  -2000.67813771 </i>
   </energy>
  </scstep>
  <scstep>
   <time name="dav">   33.72   33.81</time>
   <time name="total">   34.40   34.49</time>
   <energy>
    <i name="e_fr_energy">  -2049.54316091 </i>
    <i name="e_wo_entrp">  -2049.54316090 </i>
    <i name="e_0_energy">  -2049.54316090 </i>
   </energy>
  </scstep>
  <scstep>
   <time name="diag">    3.24    3.25</time>
   <time name="diis">   24.36   24.45</time>
   <time name="orth">    0.44    0.60</time>
   <time name="total">   28.87   29.13</time>
   <energy>
    <i name="e_fr_energy">  -1693.54229426 </i>
    <i name="e_wo_entrp">  -1693.52788262 </i>
    <i name="e_0_energy">  -1693.53508844 </i>
   </energy>
  </scstep>
  <scstep>
   <time name="diag">    3.27    3.27</time>
   <time name="diis">   22.78   22.82</time>
   <time name="orth">    0.46    0.46</time>
   <time name="total">   27.50   27.55</time>
   <energy>
    <i name="e_fr_energy">  -1611.16812888 </i>
    <i name="e_wo_entrp">  -1611.16812888 </i>
    <i name="e_0_energy">  -1611.16812888 </i>
   </energy>
  </scstep>
  <scstep>
   <time name="diag">    3.24    3.25</time>
   <time name="diis">   25.20   25.26</time>
   <time name="orth">    0.46    0.46</time>
   <time name="total">   29.74   29.81</time>
   <energy>
    <i name="e_fr_energy">  -1610.53568320 </i>
    <i name="e_wo_entrp">  -1610.51142891 </i>
    <i name="e_0_energy">  -1610.52355606 </i>
   </energy>
  </scstep>
  <scstep>
   <time name="diag">    3.39    3.40</time>
   <time name="diis">   25.26   25.48</time>
   <time name="orth">    0.45    0.46</time>
   <time name="total">   30.01   30.24</time>
   <energy>
    <i name="e_fr_energy">  -1612.08475098 </i>
    <i name="e_wo_entrp">  -1612.08441251 </i>
    <i name="e_0_energy">  -1612.08458175 </i>
   </energy>
  </scstep>
  <scstep>
   <time name="diag">    3.34    3.35</time>
   <time name="diis">   25.40   25.52</time>
   <time name="orth">    0.46    0.46</time>
   <time name="total">   30.07   30.20</time>
   <energy>
    <i name="e_fr_energy">  -1609.93541606 </i>
    <i name="e_wo_entrp">  -1609.91204977 </i>
    <i name="e_0_energy">  -1609.92373291 </i>
   </energy>
  </scstep>
  <scstep>
   <time name="diag">    3.38    3.38</time>
   <time name="diis">   25.12   25.13</time>
   <time name="orth">    0.46    0.46</time>
   <time name="total">   29.81   29.82</time>
   <energy>
    <i name="e_fr_energy">  -1610.02726180 </i>
    <i name="e_wo_entrp">  -1610.01300662 </i>
    <i name="e_0_energy">  -1610.02013421 </i>
   </energy>
  </scstep>
  <scstep>
   <time name="diag">    3.36    3.36</time>
   <time name="diis">   25.41   25.42</time>
   <time name="orth">    0.46    0.46</time>
   <time name="total">   30.10   30.13</time>
   <energy>
    <i name="e_fr_energy">  -1609.83390288 </i>
    <i name="e_wo_entrp">  -1609.83276094 </i>
    <i name="e_0_energy">  -1609.83333191 </i>
   </energy>
  </scstep>
  <scstep>
   <time name="diag">    3.36    3.36</time>
   <time name="diis">   25.30   25.32</time>
   <time name="orth">    0.46    0.46</time>
   <time name="total">   29.98   29.99</time>
   <energy>
    <i name="e_fr_energy">  -1609.79478818 </i>
    <i name="e_wo_entrp">  -1609.78265401 </i>
    <i name="e_0_energy">  -1609.78872110 </i>
   </energy>
  </scstep>
  <scstep>
   <time name="diag">    3.33    3.33</time>
   <time name="diis">   24.44   24.56</time>
   <time name="orth">    0.46    0.46</time>
   <time name="total">   29.08   29.21</time>
   <energy>
    <i name="e_fr_energy">  -1609.67178720 </i>
    <i name="e_wo_entrp">  -1609.64598907 </i>
    <i name="e_0_energy">  -1609.65888814 </i>
   </energy>
  </scstep>
  <scstep>
   <time name="diag">    3.34    3.34</time>
   <time name="diis">   24.33   24.34</time>
   <time name="orth">    0.45    0.51</time>
   <time name="total">   28.97   29.05</time>
   <energy>
    <i name="e_fr_energy">  -1609.64345245 </i>
    <i name="e_wo_entrp">  -1609.62280950 </i>
    <i name="e_0_energy">  -1609.63313097 </i>
   </energy>
  </scstep>
  <scstep>
   <time name="diag">    3.34    3.34</time>
   <time name="diis">   25.38   25.59</time>
   <time name="orth">    0.46    0.46</time>
   <time name="total">   30.02   30.24</time>
   <energy>
    <i name="e_fr_energy">  -1609.64344486 </i>
    <i name="e_wo_entrp">  -1609.62916353 </i>
    <i name="e_0_energy">  -1609.63630420 </i>
   </energy>
  </scstep>
  <scstep>
   <time name="diag">    3.28    3.46</time>
   <time name="diis">   25.11   25.14</time>
   <time name="orth">    0.45    0.47</time>
   <time name="total">   29.64   29.92</time>
   <energy>
    <i name="e_fr_energy">  -1609.64819561 </i>
    <i name="e_wo_entrp">  -1609.63338896 </i>
    <i name="e_0_energy">  -1609.64079229 </i>
   </energy>
  </scstep>
  <scstep>
   <time name="diag">    3.35    3.35</time>
   <time name="diis">   25.71   25.84</time>
   <time name="orth">    0.46    0.46</time>
   <time name="total">   30.38   30.51</time>
   <energy>
    <i name="e_fr_energy">  -1609.65162289 </i>
    <i name="e_wo_entrp">  -1609.63409927 </i>
    <i name="e_0_energy">  -1609.64286108 </i>
   </energy>
  </scstep>
  <scstep>
   <time name="diag">    3.34    3.34</time>
   <time name="diis">   25.32   25.45</time>
   <time name="orth">    0.52    0.55</time>
   <time name="total">   30.03   30.20</time>
   <energy>
    <i name="e_fr_energy">  -1609.65437662 </i>
    <i name="e_wo_entrp">  -1609.63586242 </i>
    <i name="e_0_energy">  -1609.64511952 </i>
   </energy>
  </scstep>
  <scstep>
   <time name="diag">    3.32    3.33</time>
   <time name="diis">   25.30   25.40</time>
   <time name="orth">    0.46    0.46</time>
   <time name="total">   29.93   30.03</time>
   <energy>
    <i name="e_fr_energy">  -1609.65567918 </i>
    <i name="e_wo_entrp">  -1609.63744464 </i>
    <i name="e_0_energy">  -1609.64656191 </i>
   </energy>
  </scstep>
  <scstep>
   <time name="diag">    3.32    3.32</time>
   <time name="diis">   25.20   25.26</time>
   <time name="orth">    0.46    0.46</time>
   <time name="total">   29.83   29.91</time>
   <energy>
    <i name="e_fr_energy">  -1609.65664869 </i>
    <i name="e_wo_entrp">  -1609.63869179 </i>
    <i name="e_0_energy">  -1609.64767024 </i>
   </energy>
  </scstep>
  <scstep>
   <time name="diag">    3.33    3.33</time>
   <time name="diis">   24.81   24.97</time>
   <time name="orth">    0.46    0.46</time>
   <time name="total">   29.45   29.61</time>
   <energy>
    <i name="e_fr_energy">  -1609.65727521 </i>
    <i name="e_wo_entrp">  -1609.63944166 </i>
    <i name="e_0_energy">  -1609.64835844 </i>
   </energy>
  </scstep>
  <scstep>
   <time name="diag">    3.33    3.34</time>
   <time name="diis">   24.65   24.67</time>
   <time name="orth">    0.45    0.47</time>
   <time name="total">   29.27   29.32</time>
   <energy>
    <i name="e_fr_energy">  -1609.65767809 </i>
    <i name="e_wo_entrp">  -1609.63995083 </i>
    <i name="e_0_energy">  -1609.64881446 </i>
   </energy>
  </scstep>
  <scstep>
   <time name="diag">    3.32    3.33</time>
   <time name="diis">   22.35   22.47</time>
   <time name="orth">    0.46    0.46</time>
   <time name="total">   27.00   27.13</time>
   <energy>
    <i name="e_fr_energy">  -1609.65797751 </i>
    <i name="e_wo_entrp">  -1609.64026673 </i>
    <i name="e_0_energy">  -1609.64912212 </i>
   </energy>
  </scstep>
  <scstep>
   <time name="diag">    3.44    3.44</time>
   <time name="diis">   22.43   22.44</time>
   <time name="orth">    0.50    0.50</time>
   <time name="total">   27.18   27.20</time>
   <energy>
    <i name="e_fr_energy">  -1609.65817545 </i>
    <i name="e_wo_entrp">  -1609.64047670 </i>
    <i name="e_0_energy">  -1609.64932607 </i>
   </energy>
  </scstep>
  <scstep>
   <time name="diag">    3.32    3.32</time>
   <time name="diis">   21.24   21.51</time>
   <time name="orth">    0.46    0.46</time>
   <time name="total">   25.86   26.14</time>
   <energy>
    <i name="e_fr_energy">  -1609.65830947 </i>
    <i name="e_wo_entrp">  -1609.64062442 </i>
    <i name="e_0_energy">  -1609.64946695 </i>
   </energy>
  </scstep>
  <scstep>
   <time name="diag">    3.33    3.34</time>
   <time name="diis">   20.67   20.68</time>
   <time name="orth">    0.46    0.46</time>
   <time name="total">   25.32   25.34</time>
   <energy>
    <i name="e_fr_energy">  -1609.65840096 </i>
    <i name="e_wo_entrp">  -1609.64073077 </i>
    <i name="e_0_energy">  -1609.64956586 </i>
   </energy>
  </scstep>
  <scstep>
   <time name="diag">    3.34    3.34</time>
   <time name="diis">   19.93   20.01</time>
   <time name="orth">    0.46    0.46</time>
   <time name="total">   24.58   24.66</time>
   <energy>
    <i name="e_fr_energy">  -1609.65846551 </i>
    <i name="e_wo_entrp">  -1609.64078957 </i>
    <i name="e_0_energy">  -1609.64962754 </i>
   </energy>
  </scstep>
  <scstep>
   <time name="diag">    3.32    3.40</time>
   <time name="diis">   20.65   20.73</time>
   <time name="orth">    0.46    0.46</time>
   <time name="total">   25.27   25.43</time>
   <energy>
    <i name="e_fr_energy">  -1609.65851143 </i>
    <i name="e_wo_entrp">  -1609.64082724 </i>
    <i name="e_0_energy">  -1609.64966933 </i>
   </energy>
  </scstep>
  <scstep>
   <time name="diag">    3.36    3.42</time>
   <time name="diis">   19.63   19.77</time>
   <time name="orth">    0.46    0.46</time>
   <time name="total">   24.33   24.53</time>
   <energy>
    <i name="e_fr_energy">  -1609.65854422 </i>
    <i name="e_wo_entrp">  -1609.64085374 </i>
    <i name="e_0_energy">  -1609.64969898 </i>
   </energy>
  </scstep>
  <scstep>
   <time name="diag">    3.33    3.33</time>
   <time name="diis">   19.50   19.54</time>
   <time name="orth">    0.46    0.46</time>
   <time name="total">   24.15   24.19</time>
   <energy>
    <i name="e_fr_energy">  -1609.65856861 </i>
    <i name="e_wo_entrp">  -1609.64088009 </i>
    <i name="e_0_energy">  -1609.64972435 </i>
   </energy>
  </scstep>
  <scstep>
   <time name="diag">    3.33    3.34</time>
   <time name="diis">   18.93   18.94</time>
   <time name="orth">    0.46    0.46</time>
   <time name="total">   23.57   23.59</time>
   <energy>
    <i name="e_fr_energy">  -1609.65858630 </i>
    <i name="e_wo_entrp">  -1609.64089958 </i>
    <i name="e_0_energy">  -1609.64974294 </i>
   </energy>
  </scstep>
  <scstep>
   <time name="diag">    3.33    3.33</time>
   <time name="diis">   18.77   19.00</time>
   <time name="orth">    0.46    0.46</time>
   <time name="total">   23.41   23.65</time>
   <energy>
    <i name="e_fr_energy">  -1609.65859974 </i>
    <i name="e_wo_entrp">  -1609.64091399 </i>
    <i name="e_0_energy">  -1609.64975686 </i>
   </energy>
  </scstep>
  <scstep>
   <time name="diag">    3.37    3.46</time>
   <time name="diis">   18.62   18.63</time>
   <time name="orth">    0.46    0.46</time>
   <time name="total">   23.34   23.46</time>
   <energy>
    <i name="e_fr_energy">  -1609.65860949 </i>
    <i name="e_wo_entrp">  -1609.64092341 </i>
    <i name="e_0_energy">  -1609.64976645 </i>
   </energy>
  </scstep>
  <scstep>
   <time name="diag">    3.33    3.33</time>
   <time name="diis">   18.68   18.69</time>
   <time name="orth">    0.46    0.46</time>
   <time name="total">   23.32   23.33</time>
   <energy>
    <i name="e_fr_energy">  -1609.65861718 </i>
    <i name="e_wo_entrp">  -1609.64093081 </i>
    <i name="e_0_energy">  -1609.64977399 </i>
   </energy>
  </scstep>
  <scstep>
   <time name="diag">    3.30    3.36</time>
   <time name="diis">   18.00   18.05</time>
   <time name="orth">    0.46    0.46</time>
   <time name="total">   22.61   22.73</time>
   <energy>
    <i name="e_fr_energy">  -1609.65862287 </i>
    <i name="e_wo_entrp">  -1609.64093638 </i>
    <i name="e_0_energy">  -1609.64977962 </i>
   </energy>
  </scstep>
  <scstep>
   <time name="diag">    3.32    3.32</time>
   <time name="diis">   18.12   18.13</time>
   <time name="orth">    0.46    0.46</time>
   <time name="total">   22.76   22.77</time>
   <energy>
    <i name="e_fr_energy">  -1609.65862726 </i>
    <i name="e_wo_entrp">  -1609.64094062 </i>
    <i name="e_0_energy">  -1609.64978394 </i>
   </energy>
  </scstep>
  <scstep>
   <time name="diag">    3.33    3.33</time>
   <time name="diis">   18.04   18.08</time>
   <time name="orth">    0.46    0.46</time>
   <time name="total">   22.68   22.73</time>
   <energy>
    <i name="e_fr_energy">  -1609.65863054 </i>
    <i name="e_wo_entrp">  -1609.64094411 </i>
    <i name="e_0_energy">  -1609.64978733 </i>
   </energy>
  </scstep>
  <scstep>
   <time name="diag">    3.32    3.32</time>
   <time name="diis">   17.48   17.61</time>
   <time name="orth">    0.46    0.46</time>
   <time name="total">   22.07   22.21</time>
   <energy>
    <i name="e_fr_energy">  -1609.65863319 </i>
    <i name="e_wo_entrp">  -1609.64094650 </i>
    <i name="e_0_energy">  -1609.64978985 </i>
   </energy>
  </scstep>
  <scstep>
   <time name="diag">    3.27    3.43</time>
   <time name="diis">   17.37   17.39</time>
   <time name="orth">    0.46    0.46</time>
   <time name="total">   21.95   22.13</time>
   <energy>
    <i name="e_fr_energy">  -1609.65863514 </i>
    <i name="e_wo_entrp">  -1609.64094845 </i>
    <i name="e_0_energy">  -1609.64979180 </i>
   </energy>
  </scstep>
  <scstep>
   <time name="diag">    3.53    3.53</time>
   <time name="diis">   16.88   16.95</time>
   <time name="orth">    0.48    0.50</time>
   <time name="total">   21.73   21.83</time>
   <energy>
    <i name="e_fr_energy">  -1609.65863666 </i>
    <i name="e_wo_entrp">  -1609.64095000 </i>
    <i name="e_0_energy">  -1609.64979333 </i>
   </energy>
  </scstep>
  <scstep>
   <time name="diag">    3.40    3.42</time>
   <time name="diis">   17.22   17.23</time>
   <time name="orth">    0.46    0.46</time>
   <time name="total">   21.97   22.10</time>
   <energy>
    <i name="e_fr_energy">  -1609.65863787 </i>
    <i name="e_wo_entrp">  -1609.64095120 </i>
    <i name="e_0_energy">  -1609.64979453 </i>
   </energy>
  </scstep>
  <scstep>
   <time name="diag">    3.31    3.32</time>
   <time name="diis">   17.29   17.34</time>
   <time name="orth">    0.46    0.46</time>
   <time name="total">   21.92   21.98</time>
   <energy>
    <i name="e_fr_energy">  -1609.65863881 </i>
    <i name="e_wo_entrp">  -1609.64095216 </i>
    <i name="e_0_energy">  -1609.64979549 </i>
   </energy>
  </scstep>
  <scstep>
   <time name="diag">    3.37    3.42</time>
   <time name="diis">   16.87   16.93</time>
   <time name="orth">    0.46    0.47</time>
   <time name="total">   21.51   21.64</time>
   <energy>
    <i name="e_fr_energy">  -1609.65863957 </i>
    <i name="e_wo_entrp">  -1609.64095281 </i>
    <i name="e_0_energy">  -1609.64979619 </i>
   </energy>
  </scstep>
  <scstep>
   <time name="diag">    3.36    3.36</time>
   <time name="diis">   16.52   16.53</time>
   <time name="orth">    0.46    0.46</time>
   <time name="total">   21.22   21.24</time>
   <energy>
    <i name="e_fr_energy">  -1609.65864010 </i>
    <i name="e_wo_entrp">  -1609.64095328 </i>
    <i name="e_0_energy">  -1609.64979669 </i>
   </energy>
  </scstep>
  <scstep>
   <time name="diag">    3.33    3.33</time>
   <time name="diis">   16.49   16.53</time>
   <time name="orth">    0.46    0.46</time>
   <time name="total">   20.47   20.51</time>
   <energy>
    <i name="alphaZ">   5664.94605771 </i>
    <i name="ewald"> -94353.70659512 </i>
    <i name="hartreedc"> -65370.95960716 </i>
    <i name="XCdc">   5902.08179131 </i>
    <i name="pawpsdc"> 182282.10170088 </i>
    <i name="pawaedc">-179154.81863529 </i>
    <i name="eentropy">     -0.01768676 </i>
    <i name="bandstr"> -20166.13304335 </i>
    <i name="atom"> 163586.84737721 </i>
    <i name="e_fr_energy">  -1609.65864058 </i>
    <i name="e_wo_entrp">  -1609.64095382 </i>
    <i name="e_0_energy">  -1609.64979720 </i>
   </energy>
  </scstep>
  <structure>
   <crystal>
    <varray name="basis" >
     <v>      10.66614950       0.00000000       0.00000000 </v>
     <v>       0.00000000      12.31618458       0.00000000 </v>
     <v>       0.00000000       0.00000000      18.65835931 </v>
    </varray>
    <i name="volume">   2451.07899282 </i>
    <varray name="rec_basis" >
     <v>       0.09375455       0.00000000       0.00000000 </v>
     <v>       0.00000000       0.08119398       0.00000000 </v>
     <v>       0.00000000       0.00000000       0.05359528 </v>
    </varray>
   </crystal>
   <varray name="positions" >
    <v>       0.08614597       0.12500000       0.00000000 </v>
    <v>       0.58333333       0.12500000       0.00000000 </v>
    <v>       0.08333333       0.37743582       0.00000000 </v>
    <v>       0.58333333       0.37500000       0.00000000 </v>
    <v>       0.08333333       0.62500000       0.00000000 </v>
    <v>       0.58333333       0.62500000       0.00000000 </v>
    <v>       0.08333333       0.87500000       0.00000000 </v>
    <v>       0.58333333       0.87500000       0.00000000 </v>
    <v>       0.33333333       0.00000000       0.00000000 </v>
    <v>       0.83333333       0.00000000       0.00000000 </v>
    <v>       0.33333333       0.25000000       0.00000000 </v>
    <v>       0.83333333       0.25000000       0.00000000 </v>
    <v>       0.33333333       0.50000000       0.00000000 </v>
    <v>       0.83333333       0.50000000       0.00000000 </v>
    <v>       0.33333333       0.75000000       0.00000000 </v>
    <v>       0.83333333       0.75000000       0.00000000 </v>
    <v>       0.00000470       0.00000000       0.12690106 </v>
    <v>       0.50000470       0.00000000       0.12690106 </v>
    <v>       0.00000470       0.25000000       0.12690106 </v>
    <v>       0.50000470       0.25000000       0.12690106 </v>
    <v>       0.00000470       0.50000000       0.12690106 </v>
    <v>       0.50000470       0.50000000       0.12690106 </v>
    <v>       0.00000470       0.75000000       0.12690106 </v>
    <v>       0.50000470       0.75000000       0.12690106 </v>
    <v>       0.25000470       0.12500000       0.12690106 </v>
    <v>       0.75000470       0.12500000       0.12690106 </v>
    <v>       0.25000470       0.37500000       0.12690106 </v>
    <v>       0.75000470       0.37500000       0.12690106 </v>
    <v>       0.25000470       0.62500000       0.12690106 </v>
    <v>       0.75000470       0.62500000       0.12690106 </v>
    <v>       0.25000470       0.87500000       0.12690106 </v>
    <v>       0.75000470       0.87500000       0.12690106 </v>
    <v>       0.00000470       0.00000000       0.37309894 </v>
    <v>       0.50000470       0.00000000       0.37309894 </v>
    <v>       0.00000470       0.25000000       0.37309894 </v>
    <v>       0.50000470       0.25000000       0.37309894 </v>
    <v>       0.00000470       0.50000000       0.37309894 </v>
    <v>       0.50000470       0.50000000       0.37309894 </v>
    <v>       0.00000470       0.75000000       0.37309894 </v>
    <v>       0.50000470       0.75000000       0.37309894 </v>
    <v>       0.25000470       0.12500000       0.37309894 </v>
    <v>       0.75000470       0.12500000       0.37309894 </v>
    <v>       0.25000470       0.37500000       0.37309894 </v>
    <v>       0.75000470       0.37500000       0.37309894 </v>
    <v>       0.25000470       0.62500000       0.37309894 </v>
    <v>       0.75000470       0.62500000       0.37309894 </v>
    <v>       0.25000470       0.87500000       0.37309894 </v>
    <v>       0.75000470       0.87500000       0.37309894 </v>
    <v>       0.08333333       0.12500000       0.50000000 </v>
    <v>       0.58333333       0.12500000       0.50000000 </v>
    <v>       0.08333333       0.37500000       0.50000000 </v>
    <v>       0.58333333       0.37500000       0.50000000 </v>
    <v>       0.08333333       0.62500000       0.50000000 </v>
    <v>       0.58333333       0.62500000       0.50000000 </v>
    <v>       0.08333333       0.87500000       0.50000000 </v>
    <v>       0.58333333       0.87500000       0.50000000 </v>
    <v>       0.33333333       0.00000000       0.50000000 </v>
    <v>       0.83333333       0.00000000       0.50000000 </v>
    <v>       0.33333333       0.25000000       0.50000000 </v>
    <v>       0.83333333       0.25000000       0.50000000 </v>
    <v>       0.33333333       0.50000000       0.50000000 </v>
    <v>       0.83333333       0.50000000       0.50000000 </v>
    <v>       0.33333333       0.75000000       0.50000000 </v>
    <v>       0.83333333       0.75000000       0.50000000 </v>
    <v>       0.16666197       0.00000000       0.62690106 </v>
    <v>       0.66666197       0.00000000       0.62690106 </v>
    <v>       0.16666197       0.25000000       0.62690106 </v>
    <v>       0.66666197       0.25000000       0.62690106 </v>
    <v>       0.16666197       0.50000000       0.62690106 </v>
    <v>       0.66666197       0.50000000       0.62690106 </v>
    <v>       0.16666197       0.75000000       0.62690106 </v>
    <v>       0.66666197       0.75000000       0.62690106 </v>
    <v>       0.41666197       0.12500000       0.62690106 </v>
    <v>       0.91666197       0.12500000       0.62690106 </v>
    <v>       0.41666197       0.37500000       0.62690106 </v>
    <v>       0.91666197       0.37500000       0.62690106 </v>
    <v>       0.41666197       0.62500000       0.62690106 </v>
    <v>       0.91666197       0.62500000       0.62690106 </v>
    <v>       0.41666197       0.87500000       0.62690106 </v>
    <v>       0.91666197       0.87500000       0.62690106 </v>
    <v>       0.16666197       0.00000000       0.87309894 </v>
    <v>       0.66666197       0.00000000       0.87309894 </v>
    <v>       0.16666197       0.25000000       0.87309894 </v>
    <v>       0.66666197       0.25000000       0.87309894 </v>
[...]
       <r>   -17.1407     0.0000   768.0000 </r>
       <r>   -16.9205     0.0000   768.0000 </r>
       <r>   -16.7002     0.0000   768.0000 </r>
       <r>   -16.4800     0.0000   768.0000 </r>
       <r>   -16.2597     0.0000   768.0000 </r>
       <r>   -16.0395     0.0000   768.0000 </r>
       <r>   -15.8192     0.0000   768.0000 </r>
       <r>   -15.5990     0.0000   768.0000 </r>
       <r>   -15.3787     0.0000   768.0000 </r>
       <r>   -15.1585     0.0000   768.0000 </r>
       <r>   -14.9382     0.0000   768.0000 </r>
       <r>   -14.7180     0.0000   768.0000 </r>
       <r>   -14.4977     0.0000   768.0000 </r>
       <r>   -14.2775     0.0000   768.0000 </r>
       <r>   -14.0572     0.0000   768.0000 </r>
       <r>   -13.8370     0.0000   768.0000 </r>
       <r>   -13.6167     0.0000   768.0000 </r>
       <r>   -13.3965     0.0000   768.0000 </r>
       <r>   -13.1762     0.0000   768.0000 </r>
       <r>   -12.9560     0.0000   768.0000 </r>
       <r>   -12.7358     0.0000   768.0000 </r>
       <r>   -12.5155     0.0000   768.0000 </r>
       <r>   -12.2953     0.0000   768.0000 </r>
       <r>   -12.0750     0.0000   768.0000 </r>
       <r>   -11.8548     0.0000   768.0000 </r>
       <r>   -11.6345     0.0000   768.0000 </r>
       <r>   -11.4143     0.0000   768.0000 </r>
       <r>   -11.1940     0.0000   768.0000 </r>
       <r>   -10.9738     0.0000   768.0000 </r>
       <r>   -10.7535     0.0000   768.0000 </r>
       <r>   -10.5333     0.0000   768.0000 </r>
       <r>   -10.3130     0.0000   768.0000 </r>
       <r>   -10.0928     0.0000   768.0000 </r>
       <r>    -9.8725     0.0000   768.0000 </r>
       <r>    -9.6523     0.0000   768.0000 </r>
       <r>    -9.4320     0.0000   768.0000 </r>
       <r>    -9.2118     0.0000   768.0000 </r>
       <r>    -8.9915     0.0000   768.0000 </r>
       <r>    -8.7713     0.0000   768.0000 </r>
       <r>    -8.5510     0.0000   768.0000 </r>
       <r>    -8.3308     0.0000   768.0000 </r>
       <r>    -8.1105     0.0000   768.0000 </r>
       <r>    -7.8903     0.0000   768.0000 </r>
       <r>    -7.6700     0.0000   768.0000 </r>
       <r>    -7.4498     0.0000   768.0000 </r>
       <r>    -7.2295     0.0000   768.0000 </r>
       <r>    -7.0093     0.0000   768.0000 </r>
       <r>    -6.7890     0.0000   768.0000 </r>
       <r>    -6.5688     0.0000   768.0000 </r>
       <r>    -6.3485     0.0000   768.0000 </r>
       <r>    -6.1283     0.0000   768.0000 </r>
       <r>    -5.9080     0.0000   768.0000 </r>
       <r>    -5.6878     0.0000   768.0000 </r>
       <r>    -5.4676     0.0000   768.0000 </r>
       <r>    -5.2473     0.0000   768.0000 </r>
       <r>    -5.0271     0.0000   768.0000 </r>
       <r>    -4.8068     0.0000   768.0000 </r>
       <r>    -4.5866     0.0000   768.0000 </r>
       <r>    -4.3663     0.0000   768.0000 </r>
       <r>    -4.1461     0.0000   768.0000 </r>
       <r>    -3.9258     0.0000   768.0000 </r>
       <r>    -3.7056     0.0000   768.0000 </r>
       <r>    -3.4853     0.0000   768.0000 </r>
       <r>    -3.2651     0.0000   772.0000 </r>
       <r>    -3.0448     0.0000   772.0000 </r>
       <r>    -2.8246     0.0000   772.0000 </r>
       <r>    -2.6043     0.0000   780.0000 </r>
       <r>    -2.3841     0.0000   788.0000 </r>
       <r>    -2.1638     0.0000   788.0000 </r>
       <r>    -1.9436    81.7198   807.9987 </r>
       <r>    -1.7233     1.0095   808.2223 </r>
       <r>    -1.5031     0.0000   836.0000 </r>
       <r>    -1.2828    54.7005   872.0477 </r>
       <r>    -1.0626    88.4006   895.4701 </r>
       <r>    -0.8423     0.0000   896.0000 </r>
       <r>    -0.6221     0.0000   896.0000 </r>
       <r>    -0.4018     0.0000   896.0000 </r>
       <r>    -0.1816     0.0000   896.0000 </r>
       <r>     0.0387     0.0000   896.0000 </r>
       <r>     0.2589     0.0000   896.0000 </r>
       <r>     0.4792     0.0000   896.0000 </r>
       <r>     0.6994     0.0000   898.0000 </r>
       <r>     0.9197     9.0807   900.0000 </r>
       <r>     1.1399     0.0000   900.0000 </r>
       <r>     1.3601     0.0000   900.0000 </r>
       <r>     1.5804    17.1255   907.7719 </r>
       <r>     1.8006    18.1623   912.0002 </r>
       <r>     2.0209     0.0000   916.0000 </r>
       <r>     2.2411     0.0000   916.0000 </r>
       <r>     2.4614     0.0000   916.0000 </r>
       <r>     2.6816    36.3226   932.0000 </r>
       <r>     2.9019     0.0000   934.0000 </r>
       <r>     3.1221    27.2419   946.0000 </r>
       <r>     3.3424     7.6844   947.6925 </r>
       <r>     3.5626     0.0000   948.0000 </r>
       <r>     3.7829    41.6244   957.1677 </r>
       <r>     4.0031     0.0000   976.0000 </r>
       <r>     4.2234    54.4838  1004.0000 </r>
       <r>     4.4436     0.7813  1010.1721 </r>
       <r>     4.6639    18.1614  1040.0000 </r>
       <r>     4.8841   118.7812  1070.1614 </r>
       <r>     5.1044     0.0000  1098.0000 </r>
       <r>     5.3246    72.6297  1125.9966 </r>
       <r>     5.5449    84.5434  1164.6206 </r>
       <r>     5.7651     9.0829  1208.0005 </r>
       <r>     5.9854   171.8502  1287.8497 </r>
       <r>     6.2056    24.7434  1311.4497 </r>
       <r>     6.4259     0.0000  1324.0000 </r>
       <r>     6.6461     0.0000  1334.0000 </r>
       <r>     6.8664     7.2992  1359.6076 </r>
       <r>     7.0866    24.7504  1383.4512 </r>
       <r>     7.3069     9.0807  1400.0000 </r>
       <r>     7.5271    54.3619  1423.9731 </r>
       <r>     7.7474    54.4839  1460.0000 </r>
       <r>     7.9676     0.0000  1472.0000 </r>
       <r>     8.1879    20.6538  1492.5490 </r>
       <r>     8.4081    44.4198  1509.7834 </r>
       <r>     8.6283     0.0000  1524.0000 </r>
       <r>     8.8486    35.3877  1539.7941 </r>
       <r>     9.0688    67.5276  1560.8728 </r>
       <r>     9.2891     0.0285  1568.0063 </r>
       <r>     9.5093    18.5176  1584.0785 </r>
       <r>     9.7296    36.3244  1600.0004 </r>
       <r>     9.9498    54.6243  1634.0309 </r>
       <r>    10.1701   105.7887  1691.2998 </r>
       <r>    10.3903    15.0750  1721.3203 </r>
       <r>    10.6106    95.8649  1751.1141 </r>
       <r>    10.8308    27.2480  1778.0013 </r>
       <r>    11.0511    18.1613  1802.0000 </r>
       <r>    11.2713     0.0000  1810.0000 </r>
       <r>    11.4916     0.0000  1810.0000 </r>
       <r>    11.7118     0.0000  1810.0000 </r>
       <r>    11.9321     0.0000  1812.0000 </r>
       <r>    12.1523     0.0000  1812.0000 </r>
       <r>    12.3726     0.0000  1812.0000 </r>
       <r>    12.5928     0.0000  1812.0000 </r>
       <r>    12.8131     0.0000  1812.0000 </r>
       <r>    13.0333     0.0000  1812.0000 </r>
       <r>    13.2536     0.0000  1812.0000 </r>
       <r>    13.4738     0.0000  1812.0000 </r>
       <r>    13.6941     0.0000  1812.0000 </r>
       <r>    13.9143     0.0000  1812.0000 </r>
       <r>    14.1346     0.0000  1812.0000 </r>
       <r>    14.3548     0.0000  1812.0000 </r>
       <r>    14.5751     0.0000  1812.0000 </r>
       <r>    14.7953     0.0000  1812.0000 </r>
      </set>
     </set>
    </array>
   </total>
  </dos>
 </calculation>
 <structure name="finalpos" >
  <crystal>
   <varray name="basis" >
    <v>      10.66614950       0.00000000       0.00000000 </v>
    <v>       0.00000000      12.31618458       0.00000000 </v>
    <v>       0.00000000       0.00000000      18.65835931 </v>
   </varray>
   <i name="volume">   2451.07899282 </i>
   <varray name="rec_basis" >
    <v>       0.09375455       0.00000000       0.00000000 </v>
    <v>       0.00000000       0.08119398       0.00000000 </v>
    <v>       0.00000000       0.00000000       0.05359528 </v>
   </varray>
  </crystal>
  <varray name="positions" >
   <v>       0.08614597       0.12500000       0.00000000 </v>
   <v>       0.58333333       0.12500000       0.00000000 </v>
   <v>       0.08333333       0.37743582       0.00000000 </v>
   <v>       0.58333333       0.37500000       0.00000000 </v>
   <v>       0.08333333       0.62500000       0.00000000 </v>
   <v>       0.58333333       0.62500000       0.00000000 </v>
   <v>       0.08333333       0.87500000       0.00000000 </v>
   <v>       0.58333333       0.87500000       0.00000000 </v>
   <v>       0.33333333       0.00000000       0.00000000 </v>
   <v>       0.83333333       0.00000000       0.00000000 </v>
   <v>       0.33333333       0.25000000       0.00000000 </v>
   <v>       0.83333333       0.25000000       0.00000000 </v>
   <v>       0.33333333       0.50000000       0.00000000 </v>
   <v>       0.83333333       0.50000000       0.00000000 </v>
   <v>       0.33333333       0.75000000       0.00000000 </v>
   <v>       0.83333333       0.75000000       0.00000000 </v>
   <v>       0.00000470       0.00000000       0.12690106 </v>
   <v>       0.50000470       0.00000000       0.12690106 </v>
   <v>       0.00000470       0.25000000       0.12690106 </v>
   <v>       0.50000470       0.25000000       0.12690106 </v>
   <v>       0.00000470       0.50000000       0.12690106 </v>
   <v>       0.50000470       0.50000000       0.12690106 </v>
   <v>       0.00000470       0.75000000       0.12690106 </v>
   <v>       0.50000470       0.75000000       0.12690106 </v>
   <v>       0.25000470       0.12500000       0.12690106 </v>
   <v>       0.75000470       0.12500000       0.12690106 </v>
   <v>       0.25000470       0.37500000       0.12690106 </v>
   <v>       0.75000470       0.37500000       0.12690106 </v>
   <v>       0.25000470       0.62500000       0.12690106 </v>
   <v>       0.75000470       0.62500000       0.12690106 </v>
   <v>       0.25000470       0.87500000       0.12690106 </v>
   <v>       0.75000470       0.87500000       0.12690106 </v>
   <v>       0.00000470       0.00000000       0.37309894 </v>
   <v>       0.50000470       0.00000000       0.37309894 </v>
   <v>       0.00000470       0.25000000       0.37309894 </v>
   <v>       0.50000470       0.25000000       0.37309894 </v>
   <v>       0.00000470       0.50000000       0.37309894 </v>
   <v>       0.50000470       0.50000000       0.37309894 </v>
   <v>       0.00000470       0.75000000       0.37309894 </v>
   <v>       0.50000470       0.75000000       0.37309894 </v>
   <v>       0.25000470       0.12500000       0.37309894 </v>
   <v>       0.75000470       0.12500000       0.37309894 </v>
   <v>       0.25000470       0.37500000       0.37309894 </v>
   <v>       0.75000470       0.37500000       0.37309894 </v>
   <v>       0.25000470       0.62500000       0.37309894 </v>
   <v>       0.75000470       0.62500000       0.37309894 </v>
   <v>       0.25000470       0.87500000       0.37309894 </v>
   <v>       0.75000470       0.87500000       0.37309894 </v>
   <v>       0.08333333       0.12500000       0.50000000 </v>
   <v>       0.58333333       0.12500000       0.50000000 </v>
   <v>       0.08333333       0.37500000       0.50000000 </v>
   <v>       0.58333333       0.37500000       0.50000000 </v>
   <v>       0.08333333       0.62500000       0.50000000 </v>
   <v>       0.58333333       0.62500000       0.50000000 </v>
   <v>       0.08333333       0.87500000       0.50000000 </v>
   <v>       0.58333333       0.87500000       0.50000000 </v>
   <v>       0.33333333       0.00000000       0.50000000 </v>
   <v>       0.83333333       0.00000000       0.50000000 </v>
   <v>       0.33333333       0.25000000       0.50000000 </v>
   <v>       0.83333333       0.25000000       0.50000000 </v>
   <v>       0.33333333       0.50000000       0.50000000 </v>
   <v>       0.83333333       0.50000000       0.50000000 </v>
   <v>       0.33333333       0.75000000       0.50000000 </v>
   <v>       0.83333333       0.75000000       0.50000000 </v>
   <v>       0.16666197       0.00000000       0.62690106 </v>
   <v>       0.66666197       0.00000000       0.62690106 </v>
   <v>       0.16666197       0.25000000       0.62690106 </v>
   <v>       0.66666197       0.25000000       0.62690106 </v>
   <v>       0.16666197       0.50000000       0.62690106 </v>
   <v>       0.66666197       0.50000000       0.62690106 </v>
   <v>       0.16666197       0.75000000       0.62690106 </v>
   <v>       0.66666197       0.75000000       0.62690106 </v>
   <v>       0.41666197       0.12500000       0.62690106 </v>
   <v>       0.91666197       0.12500000       0.62690106 </v>
   <v>       0.41666197       0.37500000       0.62690106 </v>
   <v>       0.91666197       0.37500000       0.62690106 </v>
   <v>       0.41666197       0.62500000       0.62690106 </v>
   <v>       0.91666197       0.62500000       0.62690106 </v>
   <v>       0.41666197       0.87500000       0.62690106 </v>
   <v>       0.91666197       0.87500000       0.62690106 </v>
   <v>       0.16666197       0.00000000       0.87309894 </v>
   <v>       0.66666197       0.00000000       0.87309894 </v>
   <v>       0.16666197       0.25000000       0.87309894 </v>
   <v>       0.66666197       0.25000000       0.87309894 </v>
   <v>       0.16666197       0.50000000       0.87309894 </v>
   <v>       0.66666197       0.50000000       0.87309894 </v>
   <v>       0.16666197       0.75000000       0.87309894 </v>
   <v>       0.66666197       0.75000000       0.87309894 </v>
   <v>       0.41666197       0.12500000       0.87309894 </v>
   <v>       0.91666197       0.12500000       0.87309894 </v>
   <v>       0.41666197       0.37500000       0.87309894 </v>
   <v>       0.91666197       0.37500000       0.87309894 </v>
   <v>       0.41666197       0.62500000       0.87309894 </v>
   <v>       0.91666197       0.62500000       0.87309894 </v>
   <v>       0.41666197       0.87500000       0.87309894 </v>
   <v>       0.91666197       0.87500000       0.87309894 </v>
   <v>       0.08331678       0.12500000       0.25000000 </v>
   <v>       0.58331678       0.12500000       0.25000000 </v>
   <v>       0.08331678       0.37500000       0.25000000 </v>
   <v>       0.58331678       0.37500000       0.25000000 </v>
   <v>       0.08331678       0.62500000       0.25000000 </v>
   <v>       0.58331678       0.62500000       0.25000000 </v>
   <v>       0.08331678       0.87500000       0.25000000 </v>
   <v>       0.58331678       0.87500000       0.25000000 </v>
   <v>       0.33331678       0.00000000       0.25000000 </v>
   <v>       0.83331678       0.00000000       0.25000000 </v>
   <v>       0.33331678       0.25000000       0.25000000 </v>
   <v>       0.83331678       0.25000000       0.25000000 </v>
   <v>       0.33331678       0.50000000       0.25000000 </v>
   <v>       0.83331678       0.50000000       0.25000000 </v>
   <v>       0.33331678       0.75000000       0.25000000 </v>
   <v>       0.83331678       0.75000000       0.25000000 </v>
   <v>       0.08334988       0.12500000       0.75000000 </v>
   <v>       0.58334988       0.12500000       0.75000000 </v>
   <v>       0.08334988       0.37500000       0.75000000 </v>
   <v>       0.58334988       0.37500000       0.75000000 </v>
   <v>       0.08334988       0.62500000       0.75000000 </v>
   <v>       0.58334988       0.62500000       0.75000000 </v>
   <v>       0.08334988       0.87500000       0.75000000 </v>
   <v>       0.58334988       0.87500000       0.75000000 </v>
   <v>       0.33334988       0.00000000       0.75000000 </v>
   <v>       0.83334988       0.00000000       0.75000000 </v>
   <v>       0.33334988       0.25000000       0.75000000 </v>
   <v>       0.83334988       0.25000000       0.75000000 </v>
   <v>       0.33334988       0.50000000       0.75000000 </v>
   <v>       0.83334988       0.50000000       0.75000000 </v>
   <v>       0.33334988       0.75000000       0.75000000 </v>
   <v>       0.83334988       0.75000000       0.75000000 </v>
   <v>       0.16667346       0.00000000       0.06935992 </v>
   <v>       0.66667346       0.00000000       0.06935992 </v>
   <v>       0.16667346       0.25000000       0.06935992 </v>
   <v>       0.66667346       0.25000000       0.06935992 </v>
   <v>       0.16667346       0.50000000       0.06935992 </v>
   <v>       0.66667346       0.50000000       0.06935992 </v>
   <v>       0.16667346       0.75000000       0.06935992 </v>
   <v>       0.66667346       0.75000000       0.06935992 </v>
   <v>       0.41667346       0.12500000       0.06935992 </v>
   <v>       0.91667346       0.12500000       0.06935992 </v>
   <v>       0.41667346       0.37500000       0.06935992 </v>
   <v>       0.91667346       0.37500000       0.06935992 </v>
   <v>       0.41667346       0.62500000       0.06935992 </v>
   <v>       0.91667346       0.62500000       0.06935992 </v>
   <v>       0.41667346       0.87500000       0.06935992 </v>
   <v>       0.91667346       0.87500000       0.06935992 </v>
   <v>       0.16667346       0.00000000       0.43064008 </v>
   <v>       0.66667346       0.00000000       0.43064008 </v>
   <v>       0.16667346       0.25000000       0.43064008 </v>
   <v>       0.66667346       0.25000000       0.43064008 </v>
   <v>       0.16667346       0.50000000       0.43064008 </v>
   <v>       0.66667346       0.50000000       0.43064008 </v>
   <v>       0.16667346       0.75000000       0.43064008 </v>
   <v>       0.66667346       0.75000000       0.43064008 </v>
   <v>       0.41667346       0.12500000       0.43064008 </v>
   <v>       0.91667346       0.12500000       0.43064008 </v>
   <v>       0.41667346       0.37500000       0.43064008 </v>
   <v>       0.91667346       0.37500000       0.43064008 </v>
   <v>       0.41667346       0.62500000       0.43064008 </v>
   <v>       0.91667346       0.62500000       0.43064008 </v>
   <v>       0.41667346       0.87500000       0.43064008 </v>
   <v>       0.91667346       0.87500000       0.43064008 </v>
   <v>       0.49999320       0.00000000       0.56935992 </v>
   <v>       0.99999320       0.00000000       0.56935992 </v>
   <v>       0.49999320       0.25000000       0.56935992 </v>
   <v>       0.99999320       0.25000000       0.56935992 </v>
   <v>       0.49999320       0.50000000       0.56935992 </v>
   <v>       0.99999320       0.50000000       0.56935992 </v>
   <v>       0.49999320       0.75000000       0.56935992 </v>
   <v>       0.99999320       0.75000000       0.56935992 </v>
   <v>       0.24999320       0.12500000       0.56935992 </v>
   <v>       0.74999320       0.12500000       0.56935992 </v>
   <v>       0.24999320       0.37500000       0.56935992 </v>
   <v>       0.74999320       0.37500000       0.56935992 </v>
   <v>       0.24999320       0.62500000       0.56935992 </v>
   <v>       0.74999320       0.62500000       0.56935992 </v>
   <v>       0.24999320       0.87500000       0.56935992 </v>
   <v>       0.74999320       0.87500000       0.56935992 </v>
   <v>       0.49999320       0.00000000       0.93064008 </v>
   <v>       0.99999320       0.00000000       0.93064008 </v>
   <v>       0.49999320       0.25000000       0.93064008 </v>
   <v>       0.99999320       0.25000000       0.93064008 </v>
   <v>       0.49999320       0.50000000       0.93064008 </v>
   <v>       0.99999320       0.50000000       0.93064008 </v>
   <v>       0.49999320       0.75000000       0.93064008 </v>
   <v>       0.99999320       0.75000000       0.93064008 </v>
   <v>       0.24999320       0.12500000       0.93064008 </v>
   <v>       0.74999320       0.12500000       0.93064008 </v>
   <v>       0.24999320       0.37500000       0.93064008 </v>
   <v>       0.74999320       0.37500000       0.93064008 </v>
   <v>       0.24999320       0.62500000       0.93064008 </v>
   <v>       0.74999320       0.62500000       0.93064008 </v>
   <v>       0.24999320       0.87500000       0.93064008 </v>
   <v>       0.74999320       0.87500000       0.93064008 </v>
  </varray>
 </structure>
</modeling>
