<?xml version="1.0" encoding="ISO-8859-1"?>
<modeling>
 <generator>
  <i name="program" type="string">vasp </i>
  <i name="version" type="string">5.4.4.2.16052018-CX13-ORIG  </i>
  <i name="subversion" type="string">(build Jul 06 2020 08:41:35) complex             parallel </i>
  <i name="platform" type="string">Pi1911m201i197avx2 </i>
  <i name="date" type="string">2020 07 31 </i>
  <i name="time" type="string">16:31:03 </i>
 </generator>
 <incar>
  <i type="string" name="PREC">accurate</i>
  <i type="string" name="ALGO"> Normal</i>
  <i type="int" name="ISPIN">     1</i>
  <i type="int" name="IBRION">     2</i>
  <i name="EDIFF">      0.00000100</i>
  <i type="int" name="NSW">   500</i>
  <i type="int" name="ISIF">     3</i>
  <i name="ENCUT">    520.00000000</i>
  <i name="POTIM">      0.50000000</i>
  <i type="string" name="LREAL"> Auto</i>
  <i type="int" name="ISMEAR">    -5</i>
  <i type="logical" name="LWAVE"> F  </i>
  <v type="int" name="KPOINT_BSE">    -1     0     0     0</v>
 </incar>
 <structure name="primitive_cell" >
  <crystal>
   <varray name="basis" >
    <v>      11.91640764       0.00000000       0.00000000 </v>
    <v>       0.00000000      11.91640764       0.00000000 </v>
    <v>       0.00000000       0.00000000      11.91640764 </v>
   </varray>
   <i name="volume">   1692.13907094 </i>
   <varray name="rec_basis" >
    <v>       0.08391791       0.00000000       0.00000000 </v>
    <v>       0.00000000       0.08391791       0.00000000 </v>
    <v>       0.00000000       0.00000000       0.08391791 </v>
   </varray>
  </crystal>
  <varray name="positions" >
   <v>       0.25000000       0.25000000       0.25000000 </v>
   <v>       0.39648610       0.10351390       0.10351390 </v>
   <v>       0.39648610       0.39648610       0.39648610 </v>
   <v>       0.10351390       0.39648610       0.10351390 </v>
   <v>       0.10351390       0.10351390       0.39648610 </v>
   <v>       0.12500000      -0.12500000       0.37500000 </v>
   <v>       0.37500000       0.12500000      -0.12500000 </v>
   <v>       0.37500000       0.37500000      -0.37500000 </v>
   <v>       0.12500000       0.12500000      -0.37500000 </v>
   <v>       0.12500000       0.37500000      -0.12500000 </v>
   <v>       0.37500000      -0.37500000       0.37500000 </v>
   <v>       0.37500000      -0.12500000       0.12500000 </v>
   <v>       0.12500000      -0.37500000       0.12500000 </v>
   <v>      -0.12500000       0.12500000       0.37500000 </v>
   <v>      -0.12500000       0.37500000       0.12500000 </v>
   <v>      -0.37500000       0.12500000       0.12500000 </v>
   <v>      -0.37500000       0.37500000       0.37500000 </v>
   <v>       0.35351390       0.14648610      -0.35351390 </v>
   <v>       0.14648610      -0.14648610       0.14648610 </v>
   <v>       0.14648610       0.14648610      -0.14648610 </v>
   <v>       0.35351390      -0.14648610       0.35351390 </v>
   <v>       0.35351390      -0.35351390       0.14648610 </v>
   <v>       0.14648610       0.35351390      -0.35351390 </v>
   <v>       0.14648610      -0.35351390       0.35351390 </v>
   <v>       0.35351390       0.35351390      -0.14648610 </v>
   <v>      -0.14648610       0.14648610       0.14648610 </v>
   <v>      -0.35351390       0.14648610       0.35351390 </v>
   <v>      -0.35351390       0.35351390       0.14648610 </v>
   <v>      -0.14648610       0.35351390       0.35351390 </v>
   <v>      -0.50000000       0.00000000      -0.50000000 </v>
   <v>      -0.50000000      -0.50000000       0.00000000 </v>
   <v>       0.00000000       0.00000000       0.00000000 </v>
   <v>      -0.39648610       0.39648610      -0.39648610 </v>
   <v>      -0.39648610       0.10351390      -0.10351390 </v>
   <v>       0.39648610      -0.39648610      -0.39648610 </v>
   <v>      -0.39648610      -0.10351390       0.10351390 </v>
   <v>      -0.39648610      -0.39648610       0.39648610 </v>
   <v>       0.39648610      -0.10351390      -0.10351390 </v>
   <v>      -0.10351390       0.10351390      -0.39648610 </v>
   <v>      -0.10351390       0.39648610      -0.10351390 </v>
   <v>      -0.10351390      -0.39648610       0.10351390 </v>
   <v>       0.10351390      -0.10351390      -0.39648610 </v>
   <v>       0.10351390      -0.39648610      -0.10351390 </v>
   <v>      -0.10351390      -0.10351390       0.39648610 </v>
   <v>      -0.37500000      -0.12500000      -0.12500000 </v>
   <v>      -0.12500000      -0.37500000      -0.12500000 </v>
   <v>      -0.12500000      -0.12500000      -0.37500000 </v>
   <v>      -0.37500000      -0.37500000      -0.37500000 </v>
   <v>      -0.35351390      -0.14648610      -0.35351390 </v>
   <v>      -0.14648610      -0.14648610      -0.14648610 </v>
   <v>      -0.14648610      -0.35351390      -0.35351390 </v>
   <v>      -0.35351390      -0.35351390      -0.14648610 </v>
   <v>       0.25000000      -0.25000000      -0.25000000 </v>
   <v>      -0.25000000       0.25000000      -0.25000000 </v>
   <v>      -0.25000000      -0.25000000       0.25000000 </v>
  </varray>
 </structure>
 <varray name="primitive_index" >
  <v type="int" >        1 </v>
  <v type="int" >       24 </v>
  <v type="int" >       27 </v>
  <v type="int" >       41 </v>
  <v type="int" >       42 </v>
  <v type="int" >        8 </v>
  <v type="int" >        9 </v>
  <v type="int" >       10 </v>
  <v type="int" >       11 </v>
  <v type="int" >       12 </v>
  <v type="int" >       13 </v>
  <v type="int" >       14 </v>
  <v type="int" >       15 </v>
  <v type="int" >       17 </v>
  <v type="int" >       18 </v>
  <v type="int" >       19 </v>
  <v type="int" >       20 </v>
  <v type="int" >       28 </v>
  <v type="int" >       29 </v>
  <v type="int" >       30 </v>
  <v type="int" >       31 </v>
  <v type="int" >       36 </v>
  <v type="int" >       37 </v>
  <v type="int" >       38 </v>
  <v type="int" >       39 </v>
  <v type="int" >       44 </v>
  <v type="int" >       46 </v>
  <v type="int" >       53 </v>
  <v type="int" >       55 </v>
  <v type="int" >        2 </v>
  <v type="int" >        4 </v>
  <v type="int" >        6 </v>
  <v type="int" >       25 </v>
  <v type="int" >       26 </v>
  <v type="int" >       32 </v>
  <v type="int" >       33 </v>
  <v type="int" >       34 </v>
  <v type="int" >       35 </v>
  <v type="int" >       40 </v>
  <v type="int" >       43 </v>
  <v type="int" >       48 </v>
  <v type="int" >       49 </v>
  <v type="int" >       50 </v>
  <v type="int" >       51 </v>
  <v type="int" >       16 </v>
  <v type="int" >       21 </v>
  <v type="int" >       22 </v>
  <v type="int" >       23 </v>
  <v type="int" >       45 </v>
  <v type="int" >       47 </v>
  <v type="int" >       52 </v>
  <v type="int" >       54 </v>
  <v type="int" >        3 </v>
  <v type="int" >        5 </v>
  <v type="int" >        7 </v>
 </varray>
 <kpoints>
  <generation param="Gamma">
   <v type="int" name="divisions">       2        2        2 </v>
   <v name="usershift">      0.00000000       0.00000000       0.00000000 </v>
   <v name="genvec1">      0.50000000       0.00000000       0.00000000 </v>
   <v name="genvec2">      0.00000000       0.50000000       0.00000000 </v>
   <v name="genvec3">      0.00000000       0.00000000       0.50000000 </v>
   <v name="shift">      0.00000000       0.00000000       0.00000000 </v>
  </generation>
  <varray name="kpointlist" >
   <v>       0.00000000       0.00000000       0.00000000 </v>
   <v>       0.50000000       0.00000000       0.00000000 </v>
   <v>       0.50000000       0.50000000       0.00000000 </v>
   <v>       0.50000000       0.50000000       0.50000000 </v>
  </varray>
  <varray name="weights" >
   <v>       0.12500000 </v>
   <v>       0.37500000 </v>
   <v>       0.37500000 </v>
   <v>       0.12500000 </v>
  </varray>
  <varray name="tetrahedronlist"  type="int" >
   <v type="int" >       12        1        2        2        3 </v>
   <v type="int" >       12        2        2        3        3 </v>
   <v type="int" >       12        2        3        3        4 </v>
   <v type="int" >       12        1        2        3        4 </v>
  </varray>
  <i name="volumeweight">      0.02083333 </i>
 </kpoints>
 <parameters>
  <separator name="general" >
   <i type="string" name="SYSTEM">unknown system</i>
   <i type="logical" name="LCOMPAT"> F  </i>
  </separator>
  <separator name="electronic" >
   <i type="string" name="PREC">accura</i>
   <i name="ENMAX">    520.00000000</i>
   <i name="ENAUG">    446.84200000</i>
   <i name="EDIFF">      0.00000100</i>
   <i type="int" name="IALGO">    38</i>
   <i type="int" name="IWAVPR">    11</i>
   <i type="int" name="NBANDS">   250</i>
   <i name="NELECT">    417.00000000</i>
   <i type="int" name="TURBO">     0</i>
   <i type="int" name="IRESTART">     0</i>
   <i type="int" name="NREBOOT">     0</i>
   <i type="int" name="NMIN">     0</i>
   <i name="EREF">      0.00000000</i>
   <separator name="electronic smearing" >
    <i type="int" name="ISMEAR">    -5</i>
    <i name="SIGMA">      0.20000000</i>
    <i name="KSPACING">      0.50000000</i>
    <i type="logical" name="KGAMMA"> T  </i>
   </separator>
   <separator name="electronic projectors" >
    <i type="logical" name="LREAL"> T  </i>
    <v name="ROPT">     -0.00025000     -0.00025000     -0.00025000</v>
    <i type="int" name="LMAXPAW">  -100</i>
    <i type="int" name="LMAXMIX">     2</i>
    <i type="logical" name="NLSPLINE"> F  </i>
   </separator>
   <separator name="electronic startup" >
    <i type="int" name="ISTART">     0</i>
    <i type="int" name="ICHARG">     2</i>
    <i type="int" name="INIWAV">     1</i>
   </separator>
   <separator name="electronic spin" >
    <i type="int" name="ISPIN">     1</i>
    <i type="logical" name="LNONCOLLINEAR"> F  </i>
    <v name="MAGMOM">      1.00000000      1.00000000      1.00000000      1.00000000      1.00000000      1.00000000      1.00000000      1.00000000      1.00000000      1.00000000      1.00000000      1.00000000      1.00000000      1.00000000      1.00000000      1.00000000      1.00000000      1.00000000      1.00000000      1.00000000
      1.00000000      1.00000000      1.00000000      1.00000000      1.00000000      1.00000000      1.00000000      1.00000000      1.00000000      1.00000000      1.00000000      1.00000000      1.00000000      1.00000000      1.00000000      1.00000000      1.00000000      1.00000000      1.00000000      1.00000000
      1.00000000      1.00000000      1.00000000      1.00000000      1.00000000      1.00000000      1.00000000      1.00000000      1.00000000      1.00000000      1.00000000      1.00000000      1.00000000      1.00000000      1.00000000</v>
    <i name="NUPDOWN">     -1.00000000</i>
    <i type="logical" name="LSORBIT"> F  </i>
    <v name="SAXIS">      0.00000000      0.00000000      1.00000000</v>
    <i type="logical" name="LSPIRAL"> F  </i>
    <v name="QSPIRAL">      0.00000000      0.00000000      0.00000000</v>
    <i type="logical" name="LZEROZ"> F  </i>
   </separator>
   <separator name="electronic exchange-correlation" >
    <i type="logical" name="LASPH"> F  </i>
    <i type="logical" name="LMETAGGA"> F  </i>
   </separator>
   <separator name="electronic convergence" >
    <i type="int" name="NELM">    60</i>
    <i type="int" name="NELMDL">    -5</i>
    <i type="int" name="NELMIN">     2</i>
    <i name="ENINI">    520.00000000</i>
    <separator name="electronic convergence detail" >
     <i type="logical" name="LDIAG"> T  </i>
     <i type="logical" name="LSUBROT"> F  </i>
     <i name="WEIMIN">      0.00100000</i>
     <i name="EBREAK">      0.00000000</i>
     <i name="DEPER">      0.30000000</i>
     <i type="int" name="NRMM">     4</i>
     <i name="TIME">      0.40000000</i>
    </separator>
   </separator>
   <separator name="electronic mixer" >
    <i name="AMIX">      0.40000000</i>
    <i name="BMIX">      1.00000000</i>
    <i name="AMIN">      0.10000000</i>
    <i name="AMIX_MAG">      1.60000000</i>
    <i name="BMIX_MAG">      1.00000000</i>
    <separator name="electronic mixer details" >
     <i type="int" name="IMIX">     4</i>
     <i type="logical" name="MIXFIRST"> F  </i>
     <i type="int" name="MAXMIX">   -45</i>
     <i name="WC">    100.00000000</i>
     <i type="int" name="INIMIX">     1</i>
     <i type="int" name="MIXPRE">     1</i>
     <i type="int" name="MREMOVE">     5</i>
    </separator>
   </separator>
   <separator name="electronic dipolcorrection" >
    <i type="logical" name="LDIPOL"> F  </i>
    <i type="logical" name="LMONO"> F  </i>
    <i type="int" name="IDIPOL">     0</i>
    <i name="EPSILON">      1.00000000</i>
    <v name="DIPOL">   -100.00000000   -100.00000000   -100.00000000</v>
    <i name="EFIELD">      0.00000000</i>
   </separator>
  </separator>
  <separator name="grids" >
   <i type="int" name="NGX">    90</i>
   <i type="int" name="NGY">    90</i>
   <i type="int" name="NGZ">    90</i>
   <i type="int" name="NGXF">   180</i>
   <i type="int" name="NGYF">   180</i>
   <i type="int" name="NGZF">   180</i>
   <i type="logical" name="ADDGRID"> F  </i>
  </separator>
  <separator name="ionic" >
   <i type="int" name="NSW">   500</i>
   <i type="int" name="IBRION">     2</i>
   <i type="int" name="MDALGO">     0</i>
   <i type="int" name="ISIF">     3</i>
   <i name="PSTRESS">      0.00000000</i>
   <i name="EDIFFG">      0.00001000</i>
   <i type="int" name="NFREE">     1</i>
   <i name="POTIM">      0.50000000</i>
   <i name="SMASS">     -3.00000000</i>
   <i name="SCALEE">      1.00000000</i>
  </separator>
  <separator name="ionic md" >
   <i name="TEBEG">      0.00010000</i>
   <i name="TEEND">      0.00010000</i>
   <i type="int" name="NBLOCK">     1</i>
   <i type="int" name="KBLOCK">   500</i>
   <i type="int" name="NPACO">   256</i>
   <i name="APACO">     16.00000000</i>
  </separator>
  <separator name="symmetry" >
   <i type="int" name="ISYM">     2</i>
   <i name="SYMPREC">      0.00001000</i>
  </separator>
  <separator name="dos" >
   <i type="int" name="LORBIT">     0</i>
   <v name="RWIGS">     -1.00000000     -1.00000000     -1.00000000</v>
   <i type="int" name="NEDOS">   301</i>
   <i name="EMIN">     10.00000000</i>
   <i name="EMAX">    -10.00000000</i>
   <i name="EFERMI">      0.00000000</i>
  </separator>
  <separator name="writing" >
   <i type="int" name="NWRITE">     2</i>
   <i type="logical" name="LWAVE"> F  </i>
   <i type="logical" name="LDOWNSAMPLE"> F  </i>
   <i type="logical" name="LCHARG"> T  </i>
   <i type="logical" name="LPARD"> F  </i>
   <i type="logical" name="LVTOT"> F  </i>
   <i type="logical" name="LVHAR"> F  </i>
   <i type="logical" name="LELF"> F  </i>
   <i type="logical" name="LOPTICS"> F  </i>
   <v name="STM">      0.00000000      0.00000000      0.00000000      0.00000000      0.00000000      0.00000000      0.00000000</v>
  </separator>
  <separator name="performance" >
   <i type="int" name="NPAR">     1</i>
   <i type="int" name="NSIM">     4</i>
   <i type="int" name="NBLK">    -1</i>
   <i type="logical" name="LPLANE"> T  </i>
   <i type="logical" name="LSCALAPACK"> T  </i>
   <i type="logical" name="LSCAAWARE"> F  </i>
   <i type="logical" name="LSCALU"> F  </i>
   <i type="logical" name="LASYNC"> F  </i>
   <i type="logical" name="LORBITALREAL"> F  </i>
  </separator>
  <separator name="miscellaneous" >
   <i type="int" name="IDIOT">     3</i>
   <i type="int" name="ISPECIAL">     0</i>
   <i type="logical" name="LMUSIC"> F  </i>
   <v name="POMASS">     39.09800000     44.95600000     78.96000000</v>
   <v name="DARWINR">      0.00000000      0.00000000      0.00000000</v>
   <v name="DARWINV">      1.00000000      1.00000000      1.00000000</v>
   <i type="logical" name="LCORR"> T  </i>
  </separator>
  <i type="logical" name="GGA_COMPAT"> T  </i>
  <i type="logical" name="LBERRY"> F  </i>
  <i type="int" name="ICORELEVEL">     0</i>
  <i type="logical" name="LDAU"> F  </i>
  <i type="int" name="I_CONSTRAINED_M">     0</i>
  <separator name="electronic exchange-correlation" >
   <i type="string" name="GGA">--</i>
   <i type="int" name="VOSKOWN">     0</i>
   <i type="logical" name="LHFCALC"> F  </i>
   <i type="string" name="PRECFOCK"></i>
   <i type="logical" name="LSYMGRAD"> F  </i>
   <i type="logical" name="LHFONE"> F  </i>
   <i type="logical" name="LRHFCALC"> F  </i>
   <i type="logical" name="LTHOMAS"> F  </i>
   <i type="logical" name="LMODELHF"> F  </i>
   <i name="ENCUT4O">     -1.00000000</i>
   <i type="int" name="EXXOEP">     0</i>
   <i type="int" name="FOURORBIT">     0</i>
   <i name="AEXX">      0.00000000</i>
   <i name="HFALPHA">      0.00000000</i>
   <i name="MCALPHA">      0.00000000</i>
   <i name="ALDAX">      1.00000000</i>
   <i name="AGGAX">      1.00000000</i>
   <i name="ALDAC">      1.00000000</i>
   <i name="AGGAC">      1.00000000</i>
   <i type="int" name="NKREDX">     1</i>
   <i type="int" name="NKREDY">     1</i>
   <i type="int" name="NKREDZ">     1</i>
   <i type="logical" name="SHIFTRED"> F  </i>
   <i type="logical" name="ODDONLY"> F  </i>
   <i type="logical" name="EVENONLY"> F  </i>
   <i type="int" name="LMAXFOCK">     0</i>
   <i type="int" name="NMAXFOCKAE">     0</i>
   <i type="logical" name="LFOCKAEDFT"> F  </i>
   <i name="HFSCREEN">      0.00000000</i>
   <i name="HFSCREENC">      0.00000000</i>
   <i type="int" name="NBANDSGWLOW">     0</i>
  </separator>
  <separator name="vdW DFT" >
   <i type="logical" name="LUSE_VDW"> F  </i>
   <i name="Zab_VDW">     -0.84910000</i>
   <i name="PARAM1">      0.12340000</i>
   <i name="PARAM2">      1.00000000</i>
   <i name="PARAM3">      0.00000000</i>
  </separator>
  <separator name="model GW" >
   <i type="int" name="MODEL_GW">     0</i>
   <i name="MODEL_EPS0">     18.45969896</i>
   <i name="MODEL_ALPHA">      1.00000000</i>
  </separator>
  <separator name="linear response parameters" >
   <i type="logical" name="LEPSILON"> F  </i>
   <i type="logical" name="LRPA"> F  </i>
   <i type="logical" name="LNABLA"> F  </i>
   <i type="logical" name="LVEL"> F  </i>
   <i type="int" name="KINTER">     0</i>
   <i name="CSHIFT">      0.10000000</i>
   <i name="OMEGAMAX">     -1.00000000</i>
   <i name="DEG_THRESHOLD">      0.00200000</i>
   <i name="RTIME">     -0.10000000</i>
   <i name="WPLASMAI">      0.00000000</i>
   <v name="DFIELD">      0.00000000      0.00000000      0.00000000</v>
   <v name="WPLASMA">      0.00000000      0.00000000      0.00000000      0.00000000      0.00000000      0.00000000      0.00000000      0.00000000      0.00000000</v>
  </separator>
  <separator name="orbital magnetization" >
   <i type="logical" name="NUCIND"> F  </i>
   <v name="MAGPOS">      0.00000000      0.00000000      0.00000000</v>
   <i type="logical" name="LNICSALL"> T  </i>
   <i type="logical" name="ORBITALMAG"> F  </i>
   <i type="logical" name="LMAGBLOCH"> F  </i>
   <i type="logical" name="LCHIMAG"> F  </i>
   <i type="logical" name="LGAUGE"> T  </i>
   <i type="int" name="MAGATOM">     0</i>
   <v name="MAGDIPOL">      0.00000000      0.00000000      0.00000000</v>
   <v name="AVECCONST">      0.00000000      0.00000000      0.00000000</v>
  </separator>
  <separator name="response functions" >
   <i type="logical" name="LADDER"> F  </i>
   <i type="logical" name="LRPAFORCE"> F  </i>
   <i type="logical" name="LFXC"> F  </i>
   <i type="logical" name="LHARTREE"> T  </i>
   <i type="int" name="IBSE">     0</i>
   <v type="int" name="KPOINT">    -1     0     0     0</v>
   <i type="logical" name="LTCTE"> F  </i>
   <i type="logical" name="LTETE"> F  </i>
   <i type="logical" name="LTRIPLET"> F  </i>
   <i type="logical" name="LFXCEPS"> F  </i>
   <i type="logical" name="LFXHEG"> F  </i>
   <i type="int" name="NATURALO">     2</i>
   <i type="logical" name="L2ORDER"> F  </i>
   <i type="logical" name="LMP2LT"> F  </i>
   <i type="logical" name="LUSEW"> F  </i>
   <i name="ENCUTGW">     -2.00000000</i>
   <i name="ENCUTGWSOFT">     -2.00000000</i>
   <i name="ENCUTLF">     -1.00000000</i>
   <i type="int" name="LMAXMP2">    -1</i>
   <i name="SCISSOR">      0.00000000</i>
   <i type="int" name="NOMEGA">     0</i>
   <i type="int" name="NOMEGAR">     0</i>
   <i type="int" name="NBANDSGW">    -1</i>
   <i type="int" name="NBANDSO">    -1</i>
   <i type="int" name="NBANDSV">    -1</i>
   <i type="int" name="NELM">     1</i>
   <i type="int" name="NELMHF">     1</i>
   <i type="int" name="DIM">     3</i>
   <i type="int" name="ANTIRES">     0</i>
   <i name="OMEGAMAX">    -30.00000000</i>
   <i name="OMEGAMIN">    -30.00000000</i>
   <i name="OMEGATL">   -200.00000000</i>
   <i type="int" name="OMEGAGRID">   140</i>
   <i name="CSHIFT">     -0.10000000</i>
   <i type="logical" name="SELFENERGY"> F  </i>
   <i type="logical" name="LSPECTRAL"> F  </i>
   <i type="logical" name="LSPECTRALGW"> F  </i>
   <i type="logical" name="LSINGLES"> F  </i>
   <i type="logical" name="LFERMIGW"> F  </i>
   <i type="logical" name="ODDONLYGW"> F  </i>
   <i type="logical" name="EVENONLYGW"> F  </i>
   <i type="int" name="NKREDLFX">     1</i>
   <i type="int" name="NKREDLFY">     1</i>
   <i type="int" name="NKREDLFZ">     1</i>
   <i type="int" name="MAXMEM">  2800</i>
   <i type="int" name="TELESCOPE">     0</i>
   <i type="int" name="TAUPAR">     1</i>
   <i type="int" name="OMEGAPAR">    -1</i>
   <i name="LAMBDA">      1.00000000</i>
  </separator>
  <separator name="External order field" >
   <i name="OFIELD_KAPPA">      0.00000000</i>
   <v name="OFIELD_K">      0.00000000      0.00000000      0.00000000</v>
   <i name="OFIELD_Q6_NEAR">      0.00000000</i>
   <i name="OFIELD_Q6_FAR">      0.00000000</i>
   <i name="OFIELD_A">      0.00000000</i>
  </separator>
 </parameters>
 <atominfo>
  <atoms>      55 </atoms>
  <types>       3 </types>
  <array name="atoms" >
   <dimension dim="1">ion</dimension>
   <field type="string">element</field>
   <field type="int">atomtype</field>
   <set>
    <rc><c>K </c><c>   1</c></rc>
    <rc><c>K </c><c>   1</c></rc>
    <rc><c>K </c><c>   1</c></rc>
    <rc><c>K </c><c>   1</c></rc>
    <rc><c>K </c><c>   1</c></rc>
    <rc><c>K </c><c>   1</c></rc>
    <rc><c>K </c><c>   1</c></rc>
    <rc><c>Sc</c><c>   2</c></rc>
    <rc><c>Sc</c><c>   2</c></rc>
    <rc><c>Sc</c><c>   2</c></rc>
    <rc><c>Sc</c><c>   2</c></rc>
    <rc><c>Sc</c><c>   2</c></rc>
    <rc><c>Sc</c><c>   2</c></rc>
    <rc><c>Sc</c><c>   2</c></rc>
    <rc><c>Sc</c><c>   2</c></rc>
    <rc><c>Sc</c><c>   2</c></rc>
    <rc><c>Sc</c><c>   2</c></rc>
    <rc><c>Sc</c><c>   2</c></rc>
    <rc><c>Sc</c><c>   2</c></rc>
    <rc><c>Sc</c><c>   2</c></rc>
    <rc><c>Sc</c><c>   2</c></rc>
    <rc><c>Sc</c><c>   2</c></rc>
    <rc><c>Sc</c><c>   2</c></rc>
    <rc><c>Se</c><c>   3</c></rc>
    <rc><c>Se</c><c>   3</c></rc>
    <rc><c>Se</c><c>   3</c></rc>
    <rc><c>Se</c><c>   3</c></rc>
    <rc><c>Se</c><c>   3</c></rc>
    <rc><c>Se</c><c>   3</c></rc>
    <rc><c>Se</c><c>   3</c></rc>
    <rc><c>Se</c><c>   3</c></rc>
    <rc><c>Se</c><c>   3</c></rc>
    <rc><c>Se</c><c>   3</c></rc>
    <rc><c>Se</c><c>   3</c></rc>
    <rc><c>Se</c><c>   3</c></rc>
    <rc><c>Se</c><c>   3</c></rc>
    <rc><c>Se</c><c>   3</c></rc>
    <rc><c>Se</c><c>   3</c></rc>
    <rc><c>Se</c><c>   3</c></rc>
    <rc><c>Se</c><c>   3</c></rc>
    <rc><c>Se</c><c>   3</c></rc>
    <rc><c>Se</c><c>   3</c></rc>
    <rc><c>Se</c><c>   3</c></rc>
    <rc><c>Se</c><c>   3</c></rc>
    <rc><c>Se</c><c>   3</c></rc>
    <rc><c>Se</c><c>   3</c></rc>
    <rc><c>Se</c><c>   3</c></rc>
    <rc><c>Se</c><c>   3</c></rc>
    <rc><c>Se</c><c>   3</c></rc>
    <rc><c>Se</c><c>   3</c></rc>
    <rc><c>Se</c><c>   3</c></rc>
    <rc><c>Se</c><c>   3</c></rc>
    <rc><c>Se</c><c>   3</c></rc>
    <rc><c>Se</c><c>   3</c></rc>
    <rc><c>Se</c><c>   3</c></rc>
   </set>
  </array>
  <array name="atomtypes" >
   <dimension dim="1">type</dimension>
   <field type="int">atomspertype</field>
   <field type="string">element</field>
   <field>mass</field>
   <field>valence</field>
   <field type="string">pseudopotential</field>
   <set>
    <rc><c>   7</c><c>K </c><c>     39.09800000</c><c>      7.00000000</c><c>  PAW_PBE K_pv 17Jan2003                </c></rc>
    <rc><c>  16</c><c>Sc</c><c>     44.95600000</c><c>     11.00000000</c><c>  PAW_PBE Sc_sv 07Sep2000               </c></rc>
    <rc><c>  32</c><c>Se</c><c>     78.96000000</c><c>      6.00000000</c><c>  PAW_PBE Se 06Sep2000                  </c></rc>
   </set>
  </array>
 </atominfo>
 <structure name="initialpos" >
  <crystal>
   <varray name="basis" >
    <v>      11.91640764       0.00000000       0.00000000 </v>
    <v>       0.00000000      11.91640764       0.00000000 </v>
    <v>       0.00000000       0.00000000      11.91640764 </v>
   </varray>
   <i name="volume">   1692.13907094 </i>
   <varray name="rec_basis" >
    <v>       0.08391791       0.00000000       0.00000000 </v>
    <v>       0.00000000       0.08391791       0.00000000 </v>
    <v>       0.00000000       0.00000000       0.08391791 </v>
   </varray>
  </crystal>
  <varray name="positions" >
   <v>       0.25000000       0.25000000       0.25000000 </v>
   <v>       0.50000000       0.00000000       0.50000000 </v>
   <v>       0.25000000       0.75000000       0.75000000 </v>
   <v>       0.50000000       0.50000000       0.00000000 </v>
   <v>       0.75000000       0.25000000       0.75000000 </v>
   <v>       0.00000000       0.00000000       0.00000000 </v>
   <v>       0.75000000       0.75000000       0.25000000 </v>
   <v>       0.12500000       0.87500000       0.37500000 </v>
   <v>       0.37500000       0.12500000       0.87500000 </v>
   <v>       0.37500000       0.37500000       0.62500000 </v>
   <v>       0.12500000       0.12500000       0.62500000 </v>
   <v>       0.12500000       0.37500000       0.87500000 </v>
   <v>       0.37500000       0.62500000       0.37500000 </v>
   <v>       0.37500000       0.87500000       0.12500000 </v>
   <v>       0.12500000       0.62500000       0.12500000 </v>
   <v>       0.62500000       0.87500000       0.87500000 </v>
   <v>       0.87500000       0.12500000       0.37500000 </v>
   <v>       0.87500000       0.37500000       0.12500000 </v>
   <v>       0.62500000       0.12500000       0.12500000 </v>
   <v>       0.62500000       0.37500000       0.37500000 </v>
   <v>       0.87500000       0.62500000       0.87500000 </v>
   <v>       0.87500000       0.87500000       0.62500000 </v>
   <v>       0.62500000       0.62500000       0.62500000 </v>
   <v>       0.39648610       0.10351390       0.10351390 </v>
   <v>       0.60351390       0.39648610       0.60351390 </v>
   <v>       0.60351390       0.10351390       0.89648610 </v>
   <v>       0.39648610       0.39648610       0.39648610 </v>
   <v>       0.35351390       0.14648610       0.64648610 </v>
   <v>       0.14648610       0.85351390       0.14648610 </v>
   <v>       0.14648610       0.14648610       0.85351390 </v>
   <v>       0.35351390       0.85351390       0.35351390 </v>
   <v>       0.39648610       0.60351390       0.60351390 </v>
   <v>       0.60351390       0.89648610       0.10351390 </v>
   <v>       0.60351390       0.60351390       0.39648610 </v>
   <v>       0.39648610       0.89648610       0.89648610 </v>
   <v>       0.35351390       0.64648610       0.14648610 </v>
   <v>       0.14648610       0.35351390       0.64648610 </v>
   <v>       0.14648610       0.64648610       0.35351390 </v>
   <v>       0.35351390       0.35351390       0.85351390 </v>
   <v>       0.89648610       0.10351390       0.60351390 </v>
   <v>       0.10351390       0.39648610       0.10351390 </v>
   <v>       0.10351390       0.10351390       0.39648610 </v>
   <v>       0.89648610       0.39648610       0.89648610 </v>
   <v>       0.85351390       0.14648610       0.14648610 </v>
   <v>       0.64648610       0.85351390       0.64648610 </v>
   <v>       0.64648610       0.14648610       0.35351390 </v>
   <v>       0.85351390       0.85351390       0.85351390 </v>
   <v>       0.89648610       0.60351390       0.10351390 </v>
   <v>       0.10351390       0.89648610       0.60351390 </v>
   <v>       0.10351390       0.60351390       0.89648610 </v>
   <v>       0.89648610       0.89648610       0.39648610 </v>
   <v>       0.85351390       0.64648610       0.64648610 </v>
   <v>       0.64648610       0.35351390       0.14648610 </v>
   <v>       0.64648610       0.64648610       0.85351390 </v>
   <v>       0.85351390       0.35351390       0.35351390 </v>
  </varray>
  <varray name="selective"  type="logical" >
   <v type="logical" >  T  T  T </v>
   <v type="logical" >  T  T  T </v>
   <v type="logical" >  T  T  T </v>
   <v type="logical" >  T  T  T </v>
   <v type="logical" >  T  T  T </v>
   <v type="logical" >  T  T  T </v>
   <v type="logical" >  T  T  T </v>
   <v type="logical" >  T  T  T </v>
   <v type="logical" >  T  T  T </v>
   <v type="logical" >  T  T  T </v>
   <v type="logical" >  T  T  T </v>
   <v type="logical" >  T  T  T </v>
   <v type="logical" >  T  T  T </v>
   <v type="logical" >  T  T  T </v>
   <v type="logical" >  T  T  T </v>
   <v type="logical" >  T  T  T </v>
   <v type="logical" >  T  T  T </v>
   <v type="logical" >  T  T  T </v>
   <v type="logical" >  T  T  T </v>
   <v type="logical" >  T  T  T </v>
   <v type="logical" >  T  T  T </v>
   <v type="logical" >  T  T  T </v>
   <v type="logical" >  T  T  T </v>
   <v type="logical" >  T  T  T </v>
   <v type="logical" >  T  T  T </v>
   <v type="logical" >  T  T  T </v>
   <v type="logical" >  T  T  T </v>
   <v type="logical" >  T  T  T </v>
   <v type="logical" >  T  T  T </v>
   <v type="logical" >  T  T  T </v>
   <v type="logical" >  T  T  T </v>
   <v type="logical" >  T  T  T </v>
   <v type="logical" >  T  T  T </v>
   <v type="logical" >  T  T  T </v>
   <v type="logical" >  T  T  T </v>
   <v type="logical" >  T  T  T </v>
   <v type="logical" >  T  T  T </v>
   <v type="logical" >  T  T  T </v>
   <v type="logical" >  T  T  T </v>
   <v type="logical" >  T  T  T </v>
   <v type="logical" >  T  T  T </v>
   <v type="logical" >  T  T  T </v>
   <v type="logical" >  T  T  T </v>
   <v type="logical" >  T  T  T </v>
   <v type="logical" >  T  T  T </v>
   <v type="logical" >  T  T  T </v>
   <v type="logical" >  T  T  T </v>
   <v type="logical" >  T  T  T </v>
   <v type="logical" >  T  T  T </v>
   <v type="logical" >  T  T  T </v>
   <v type="logical" >  T  T  T </v>
   <v type="logical" >  T  T  T </v>
   <v type="logical" >  T  T  T </v>
   <v type="logical" >  T  T  T </v>
   <v type="logical" >  T  T  T </v>
  </varray>
  <nose>
   <v>      -3.00000000       0.00000000       0.00010000       0.00010000 </v>
  </nose>
 </structure>
 <calculation>
  <scstep>
   <time name="dav">    4.54    4.56</time>
   <time name="total">    4.63    4.66</time>
   <energy>
    <i name="alphaZ">   1316.70839379 </i>
    <i name="ewald"> -18699.66774089 </i>
    <i name="hartreedc"> -10827.58512258 </i>
    <i name="XCdc">    872.44687676 </i>
    <i name="pawpsdc">  24865.95040397 </i>
    <i name="pawaedc"> -24264.66999095 </i>
    <i name="eentropy">      0.00000000 </i>
    <i name="bandstr">   1429.49246477 </i>
    <i name="atom">  31754.00826902 </i>
    <i name="e_fr_energy">   6446.68355390 </i>
    <i name="e_wo_entrp">   6446.68355390 </i>
    <i name="e_0_energy">   6446.68355390 </i>
   </energy>
  </scstep>
  <scstep>
   <time name="dav">    5.08    5.11</time>
   <time name="total">    5.08    5.11</time>
   <energy>
    <i name="e_fr_energy">    814.67089351 </i>
    <i name="e_wo_entrp">    814.67089351 </i>
    <i name="e_0_energy">    814.67089351 </i>
   </energy>
  </scstep>
  <scstep>
   <time name="dav">    6.69    6.73</time>
   <time name="total">    6.69    6.73</time>
   <energy>
    <i name="e_fr_energy">   -231.83839115 </i>
    <i name="e_wo_entrp">   -231.83839115 </i>
    <i name="e_0_energy">   -231.83839115 </i>
   </energy>
  </scstep>
  <scstep>
   <time name="dav">    6.35    6.38</time>
   <time name="total">    6.35    6.38</time>
   <energy>
    <i name="e_fr_energy">   -324.52602681 </i>
    <i name="e_wo_entrp">   -324.52602681 </i>
    <i name="e_0_energy">   -324.52602681 </i>
   </energy>
  </scstep>
  <scstep>
   <time name="dav">    6.35    6.39</time>
   <time name="total">    6.66    6.70</time>
   <energy>
    <i name="e_fr_energy">   -327.74858136 </i>
    <i name="e_wo_entrp">   -327.74858136 </i>
    <i name="e_0_energy">   -327.74858136 </i>
   </energy>
  </scstep>
  <scstep>
   <time name="dav">    6.19    6.22</time>
   <time name="total">    6.58    6.62</time>
   <energy>
    <i name="e_fr_energy">   -291.54443931 </i>
    <i name="e_wo_entrp">   -291.54443931 </i>
    <i name="e_0_energy">   -291.54443931 </i>
   </energy>
  </scstep>
  <scstep>
   <time name="dav">    6.18    6.21</time>
   <time name="total">    6.57    6.60</time>
   <energy>
    <i name="e_fr_energy">   -290.96031741 </i>
    <i name="e_wo_entrp">   -290.96031741 </i>
    <i name="e_0_energy">   -290.96031741 </i>
   </energy>
  </scstep>
  <scstep>
   <time name="dav">    5.93    5.97</time>
   <time name="total">    6.33    6.36</time>
   <energy>
    <i name="e_fr_energy">   -290.82980594 </i>
    <i name="e_wo_entrp">   -290.82980594 </i>
    <i name="e_0_energy">   -290.82980594 </i>
   </energy>
  </scstep>
  <scstep>
   <time name="dav">    5.77    5.80</time>
   <time name="total">    6.16    6.19</time>
   <energy>
    <i name="e_fr_energy">   -290.92734967 </i>
    <i name="e_wo_entrp">   -290.92734967 </i>
    <i name="e_0_energy">   -290.92734967 </i>
   </energy>
  </scstep>
  <scstep>
   <time name="dav">    6.22    6.26</time>
   <time name="total">    6.61    6.65</time>
   <energy>
    <i name="e_fr_energy">   -290.91169446 </i>
    <i name="e_wo_entrp">   -290.91169446 </i>
    <i name="e_0_energy">   -290.91169446 </i>
   </energy>
  </scstep>
  <scstep>
   <time name="dav">    5.75    5.78</time>
   <time name="total">    6.13    6.17</time>
   <energy>
    <i name="e_fr_energy">   -290.91632620 </i>
    <i name="e_wo_entrp">   -290.91632620 </i>
    <i name="e_0_energy">   -290.91632620 </i>
   </energy>
  </scstep>
  <scstep>
   <time name="dav">    5.81    5.84</time>
   <time name="total">    6.20    6.23</time>
   <energy>
    <i name="e_fr_energy">   -290.92302403 </i>
    <i name="e_wo_entrp">   -290.92302403 </i>
    <i name="e_0_energy">   -290.92302403 </i>
   </energy>
  </scstep>
  <scstep>
   <time name="dav">    5.97    6.00</time>
   <time name="total">    6.36    6.39</time>
   <energy>
    <i name="e_fr_energy">   -290.92526868 </i>
    <i name="e_wo_entrp">   -290.92526868 </i>
    <i name="e_0_energy">   -290.92526868 </i>
   </energy>
  </scstep>
  <scstep>
   <time name="dav">    5.70    5.73</time>
   <time name="total">    6.09    6.12</time>
   <energy>
    <i name="e_fr_energy">   -290.92572942 </i>
    <i name="e_wo_entrp">   -290.92572942 </i>
    <i name="e_0_energy">   -290.92572942 </i>
   </energy>
  </scstep>
  <scstep>
   <time name="dav">    5.23    5.26</time>
   <time name="total">    5.62    5.65</time>
   <energy>
    <i name="e_fr_energy">   -290.92603860 </i>
    <i name="e_wo_entrp">   -290.92603860 </i>
    <i name="e_0_energy">   -290.92603860 </i>
   </energy>
  </scstep>
  <scstep>
   <time name="dav">    5.10    5.13</time>
   <time name="total">    5.49    5.52</time>
   <energy>
    <i name="e_fr_energy">   -290.92612462 </i>
    <i name="e_wo_entrp">   -290.92612462 </i>
    <i name="e_0_energy">   -290.92612462 </i>
   </energy>
  </scstep>
  <scstep>
   <time name="dav">    5.08    5.10</time>
   <time name="total">    5.46    5.49</time>
   <energy>
    <i name="e_fr_energy">   -290.92613172 </i>
    <i name="e_wo_entrp">   -290.92613172 </i>
    <i name="e_0_energy">   -290.92613172 </i>
   </energy>
  </scstep>
  <scstep>
   <time name="dav">    4.58    4.60</time>
   <time name="total">    4.96    4.99</time>
   <energy>
    <i name="e_fr_energy">   -290.92613612 </i>
    <i name="e_wo_entrp">   -290.92613612 </i>
    <i name="e_0_energy">   -290.92613612 </i>
   </energy>
  </scstep>
  <scstep>
   <time name="dav">    4.09    4.11</time>
   <time name="total">    4.47    4.50</time>
   <energy>
    <i name="e_fr_energy">   -290.92613415 </i>
    <i name="e_wo_entrp">   -290.92613415 </i>
    <i name="e_0_energy">   -290.92613415 </i>
   </energy>
  </scstep>
  <scstep>
   <time name="dav">    3.61    3.63</time>
   <time name="total">    3.70    3.72</time>
   <energy>
    <i name="alphaZ">   1316.70839379 </i>
    <i name="ewald"> -18699.66774089 </i>
    <i name="hartreedc"> -10494.47790802 </i>
    <i name="XCdc">    868.71343558 </i>
    <i name="pawpsdc">  30841.45330991 </i>
    <i name="pawaedc"> -30284.34101147 </i>
    <i name="eentropy">      0.00000000 </i>
    <i name="bandstr">  -5593.32288271 </i>
    <i name="atom">  31754.00826902 </i>
    <i name="e_fr_energy">   -290.92613479 </i>
    <i name="e_wo_entrp">   -290.92613479 </i>
    <i name="e_0_energy">   -290.92613479 </i>
   </energy>
  </scstep>
  <structure>
   <crystal>
    <varray name="basis" >
     <v>      11.91640764       0.00000000       0.00000000 </v>
     <v>       0.00000000      11.91640764       0.00000000 </v>
     <v>       0.00000000       0.00000000      11.91640764 </v>
    </varray>
    <i name="volume">   1692.13907094 </i>
    <varray name="rec_basis" >
     <v>       0.08391791       0.00000000       0.00000000 </v>
     <v>       0.00000000       0.08391791       0.00000000 </v>
     <v>       0.00000000       0.00000000       0.08391791 </v>
    </varray>
   </crystal>
   <varray name="positions" >
    <v>       0.25000000       0.25000000       0.25000000 </v>
    <v>       0.50000000       0.00000000       0.50000000 </v>
    <v>       0.25000000       0.75000000       0.75000000 </v>
    <v>       0.50000000       0.50000000       0.00000000 </v>
    <v>       0.75000000       0.25000000       0.75000000 </v>
    <v>       0.00000000       0.00000000       0.00000000 </v>
    <v>       0.75000000       0.75000000       0.25000000 </v>
    <v>       0.12500000       0.87500000       0.37500000 </v>
    <v>       0.37500000       0.12500000       0.87500000 </v>
    <v>       0.37500000       0.37500000       0.62500000 </v>
    <v>       0.12500000       0.12500000       0.62500000 </v>
    <v>       0.12500000       0.37500000       0.87500000 </v>
    <v>       0.37500000       0.62500000       0.37500000 </v>
    <v>       0.37500000       0.87500000       0.12500000 </v>
    <v>       0.12500000       0.62500000       0.12500000 </v>
    <v>       0.62500000       0.87500000       0.87500000 </v>
    <v>       0.87500000       0.12500000       0.37500000 </v>
    <v>       0.87500000       0.37500000       0.12500000 </v>
    <v>       0.62500000       0.12500000       0.12500000 </v>
    <v>       0.62500000       0.37500000       0.37500000 </v>
    <v>       0.87500000       0.62500000       0.87500000 </v>
    <v>       0.87500000       0.87500000       0.62500000 </v>
    <v>       0.62500000       0.62500000       0.62500000 </v>
    <v>       0.39648610       0.10351390       0.10351390 </v>
    <v>       0.60351390       0.39648610       0.60351390 </v>
    <v>       0.60351390       0.10351390       0.89648610 </v>
    <v>       0.39648610       0.39648610       0.39648610 </v>
    <v>       0.35351390       0.14648610       0.64648610 </v>
    <v>       0.14648610       0.85351390       0.14648610 </v>
    <v>       0.14648610       0.14648610       0.85351390 </v>
    <v>       0.35351390       0.85351390       0.35351390 </v>
    <v>       0.39648610       0.60351390       0.60351390 </v>
    <v>       0.60351390       0.89648610       0.10351390 </v>
    <v>       0.60351390       0.60351390       0.39648610 </v>
    <v>       0.39648610       0.89648610       0.89648610 </v>
    <v>       0.35351390       0.64648610       0.14648610 </v>
    <v>       0.14648610       0.35351390       0.64648610 </v>
    <v>       0.14648610       0.64648610       0.35351390 </v>
    <v>       0.35351390       0.35351390       0.85351390 </v>
    <v>       0.89648610       0.10351390       0.60351390 </v>
    <v>       0.10351390       0.39648610       0.10351390 </v>
    <v>       0.10351390       0.10351390       0.39648610 </v>
    <v>       0.89648610       0.39648610       0.89648610 </v>
    <v>       0.85351390       0.14648610       0.14648610 </v>
    <v>       0.64648610       0.85351390       0.64648610 </v>
    <v>       0.64648610       0.14648610       0.35351390 </v>
    <v>       0.85351390       0.85351390       0.85351390 </v>
    <v>       0.89648610       0.60351390       0.10351390 </v>
    <v>       0.10351390       0.89648610       0.60351390 </v>
    <v>       0.10351390       0.60351390       0.89648610 </v>
    <v>       0.89648610       0.89648610       0.39648610 </v>
    <v>       0.85351390       0.64648610       0.64648610 </v>
    <v>       0.64648610       0.35351390       0.14648610 </v>
    <v>       0.64648610       0.64648610       0.85351390 </v>
    <v>       0.85351390       0.35351390       0.35351390 </v>
   </varray>
  </structure>
  <varray name="forces" >
   <v>      -0.03385522       0.03385522       0.03385522 </v>
   <v>      -0.00000000      -0.00000000      -0.00000000 </v>
   <v>      -0.03385522      -0.03385522      -0.03385522 </v>
   <v>      -0.00000000      -0.00000000      -0.00000000 </v>
   <v>       0.03385522       0.03385522      -0.03385522 </v>
   <v>      -0.00000000      -0.00000000      -0.00000000 </v>
   <v>       0.03385522      -0.03385522       0.03385522 </v>
   <v>      -0.02582113      -0.01031799       0.02582113 </v>
   <v>       0.01930878      -0.01930878       0.01930878 </v>
   <v>      -0.01031799       0.02582113      -0.02582113 </v>
   <v>      -0.02582113       0.01031799      -0.02582113 </v>
   <v>      -0.02582113       0.02582113      -0.01031799 </v>
   <v>      -0.01031799      -0.02582113       0.02582113 </v>
   <v>       0.01930878       0.01930878      -0.01930878 </v>
   <v>      -0.02582113      -0.02582113       0.01031799 </v>
   <v>      -0.01930878       0.01930878       0.01930878 </v>
   <v>       0.02582113       0.01031799       0.02582113 </v>
   <v>       0.02582113       0.02582113       0.01031799 </v>
   <v>      -0.01930878      -0.01930878      -0.01930878 </v>
   <v>       0.01031799       0.02582113       0.02582113 </v>
   <v>       0.02582113      -0.02582113      -0.01031799 </v>
   <v>       0.02582113      -0.01031799      -0.02582113 </v>
   <v>       0.01031799      -0.02582113      -0.02582113 </v>
   <v>      -0.00673077       0.00673077       0.00673077 </v>
   <v>      -0.03253905       0.00633892      -0.00633892 </v>
   <v>       0.00673077       0.00673077      -0.00673077 </v>
   <v>       0.03253905       0.00633892       0.00633892 </v>
   <v>      -0.04176804       0.04176804      -0.01088980 </v>
   <v>      -0.01088980      -0.04176804       0.04176804 </v>
   <v>      -0.01088980       0.04176804      -0.04176804 </v>
   <v>      -0.04176804      -0.04176804       0.01088980 </v>
   <v>       0.03253905      -0.00633892      -0.00633892 </v>
   <v>       0.00673077      -0.00673077       0.00673077 </v>
   <v>      -0.03253905      -0.00633892       0.00633892 </v>
   <v>      -0.00673077      -0.00673077      -0.00673077 </v>
   <v>      -0.04176804      -0.01088980       0.04176804 </v>
   <v>      -0.18557450       0.18557450      -0.18557450 </v>
   <v>      -0.18557450      -0.18557450       0.18557450 </v>
   <v>      -0.04176804       0.01088980      -0.04176804 </v>
   <v>       0.00633892      -0.03253905      -0.00633892 </v>
   <v>      -0.00633892       0.00633892      -0.03253905 </v>
   <v>      -0.00633892      -0.03253905       0.00633892 </v>
   <v>       0.00633892       0.00633892       0.03253905 </v>
   <v>       0.01088980       0.04176804       0.04176804 </v>
   <v>       0.04176804      -0.04176804      -0.01088980 </v>
   <v>       0.04176804       0.04176804       0.01088980 </v>
   <v>       0.01088980      -0.04176804      -0.04176804 </v>
   <v>       0.00633892      -0.00633892      -0.03253905 </v>
   <v>      -0.00633892       0.03253905      -0.00633892 </v>
   <v>      -0.00633892      -0.00633892       0.03253905 </v>
   <v>       0.00633892       0.03253905       0.00633892 </v>
   <v>       0.18557450      -0.18557450      -0.18557450 </v>
   <v>       0.04176804       0.01088980       0.04176804 </v>
   <v>       0.04176804      -0.01088980      -0.04176804 </v>
   <v>       0.18557450       0.18557450       0.18557450 </v>
  </varray>
  <varray name="stress" >
   <v>      -3.44386579      -0.00000000       0.00000000 </v>
   <v>      -0.00000000      -3.44386579       0.00000000 </v>
   <v>       0.00000000       0.00000000      -3.44386579 </v>
  </varray>
  <energy>
   <i name="e_fr_energy">   -290.92613479 </i>
   <i name="e_wo_entrp">   -290.92613479 </i>
   <i name="e_0_energy">      0.00000000 </i>
  </energy>
  <time name="totalsc">  126.46  127.17</time>
 </calculation>
 <calculation>
  <scstep>
   <time name="dav">    5.31    5.34</time>
   <time name="total">    5.70    5.73</time>
   <energy>
    <i name="alphaZ">   1329.39157139 </i>
    <i name="ewald"> -18767.89540937 </i>
    <i name="hartreedc"> -10520.05498253 </i>
    <i name="XCdc">    872.39592602 </i>
    <i name="pawpsdc">  30841.39405666 </i>
    <i name="pawaedc"> -30284.28199126 </i>
    <i name="eentropy">      0.00000000 </i>
    <i name="bandstr">  -5516.12344063 </i>
    <i name="atom">  31754.00826902 </i>
    <i name="e_fr_energy">   -291.16600070 </i>
    <i name="e_wo_entrp">   -291.16600070 </i>
    <i name="e_0_energy">   -291.16600070 </i>
   </energy>
  </scstep>
  <scstep>
   <time name="dav">    5.71    5.74</time>
   <time name="total">    6.09    6.13</time>
   <energy>
    <i name="e_fr_energy">   -291.00327793 </i>
    <i name="e_wo_entrp">   -291.00327793 </i>
    <i name="e_0_energy">   -291.00327793 </i>
   </energy>
  </scstep>
  <scstep>
   <time name="dav">    5.49    5.52</time>
   <time name="total">    5.87    5.91</time>
   <energy>
    <i name="e_fr_energy">   -290.96878748 </i>
    <i name="e_wo_entrp">   -290.96878748 </i>
    <i name="e_0_energy">   -290.96878748 </i>
   </energy>
  </scstep>
  <scstep>
   <time name="dav">    5.63    5.66</time>
   <time name="total">    6.02    6.05</time>
   <energy>
    <i name="e_fr_energy">   -290.96495498 </i>
    <i name="e_wo_entrp">   -290.96495498 </i>
    <i name="e_0_energy">   -290.96495498 </i>
   </energy>
  </scstep>
  <scstep>
   <time name="dav">    6.29    6.32</time>
   <time name="total">    6.68    6.72</time>
   <energy>
    <i name="e_fr_energy">   -290.96498300 </i>
    <i name="e_wo_entrp">   -290.96498300 </i>
    <i name="e_0_energy">   -290.96498300 </i>
   </energy>
  </scstep>
  <scstep>
   <time name="dav">    5.78    5.81</time>
   <time name="total">    6.17    6.21</time>
   <energy>
    <i name="e_fr_energy">   -290.96502916 </i>
    <i name="e_wo_entrp">   -290.96502916 </i>
    <i name="e_0_energy">   -290.96502916 </i>
   </energy>
  </scstep>
  <scstep>
   <time name="dav">    5.59    5.62</time>
   <time name="total">    5.98    6.01</time>
   <energy>
    <i name="e_fr_energy">   -290.96498498 </i>
    <i name="e_wo_entrp">   -290.96498498 </i>
    <i name="e_0_energy">   -290.96498498 </i>
   </energy>
  </scstep>
  <scstep>
   <time name="dav">    5.19    5.22</time>
   <time name="total">    5.58    5.61</time>
   <energy>
    <i name="e_fr_energy">   -290.96498244 </i>
    <i name="e_wo_entrp">   -290.96498244 </i>
    <i name="e_0_energy">   -290.96498244 </i>
   </energy>
  </scstep>
  <scstep>
   <time name="dav">    3.94    3.96</time>
   <time name="total">    4.33    4.35</time>
   <energy>
    <i name="e_fr_energy">   -290.96498901 </i>
    <i name="e_wo_entrp">   -290.96498901 </i>
    <i name="e_0_energy">   -290.96498901 </i>
   </energy>
  </scstep>
  <scstep>
   <time name="dav">    3.53    3.55</time>
   <time name="total">    3.61    3.63</time>
   <energy>
    <i name="alphaZ">   1329.39157139 </i>
    <i name="ewald"> -18767.89540937 </i>
    <i name="hartreedc"> -10462.51071966 </i>
    <i name="XCdc">    869.68795704 </i>
    <i name="pawpsdc">  31025.14081967 </i>
    <i name="pawaedc"> -30468.24388115 </i>
    <i name="eentropy">      0.00000000 </i>
    <i name="bandstr">  -5570.54359547 </i>
    <i name="atom">  31754.00826902 </i>
    <i name="e_fr_energy">   -290.96498854 </i>
    <i name="e_wo_entrp">   -290.96498854 </i>
    <i name="e_0_energy">   -290.96498854 </i>
   </energy>
  </scstep>
  <structure>
   <crystal>
    <varray name="basis" >
     <v>      11.87838996      -0.00000000       0.00000000 </v>
     <v>      -0.00000000      11.87838996       0.00000000 </v>
     <v>       0.00000000       0.00000000      11.87838996 </v>
    </varray>
    <i name="volume">   1675.99506881 </i>
    <varray name="rec_basis" >
     <v>       0.08418649       0.00000000      -0.00000000 </v>
     <v>       0.00000000       0.08418649      -0.00000000 </v>
     <v>      -0.00000000      -0.00000000       0.08418649 </v>
    </varray>
   </crystal>
   <varray name="positions" >
    <v>       0.24986294       0.25013706       0.25013706 </v>
    <v>       0.50000000      -0.00000000       0.50000000 </v>
    <v>       0.24986294       0.74986294       0.74986294 </v>
    <v>       0.50000000       0.50000000      -0.00000000 </v>
    <v>       0.75013706       0.25013706       0.74986294 </v>
    <v>      -0.00000000      -0.00000000      -0.00000000 </v>
    <v>       0.75013706       0.74986294       0.25013706 </v>
    <v>       0.12489547       0.87495823       0.37510453 </v>
    <v>       0.37507817       0.12492183       0.87507817 </v>
    <v>       0.37495823       0.37510453       0.62489547 </v>
    <v>       0.12489547       0.12504177       0.62489547 </v>
    <v>       0.12489547       0.37510453       0.87495823 </v>
    <v>       0.37495823       0.62489547       0.37510453 </v>
    <v>       0.37507817       0.87507817       0.12492183 </v>
    <v>       0.12489547       0.62489547       0.12504177 </v>
    <v>       0.62492183       0.87507817       0.87507817 </v>
    <v>       0.87510453       0.12504177       0.37510453 </v>
    <v>       0.87510453       0.37510453       0.12504177 </v>
    <v>       0.62492183       0.12492183       0.12492183 </v>
    <v>       0.62504177       0.37510453       0.37510453 </v>
    <v>       0.87510453       0.62489547       0.87495823 </v>
    <v>       0.87510453       0.87495823       0.62489547 </v>
    <v>       0.62504177       0.62489547       0.62489547 </v>
    <v>       0.39645885       0.10354115       0.10354115 </v>
    <v>       0.60338217       0.39651176       0.60348824 </v>
    <v>       0.60354115       0.10354115       0.89645885 </v>
    <v>       0.39661783       0.39651176       0.39651176 </v>
    <v>       0.35334481       0.14665519       0.64644201 </v>
    <v>       0.14644201       0.85334481       0.14665519 </v>
    <v>       0.14644201       0.14665519       0.85334481 </v>
    <v>       0.35334481       0.85334481       0.35355799 </v>
    <v>       0.39661783       0.60348824       0.60348824 </v>
    <v>       0.60354115       0.89645885       0.10354115 </v>
    <v>       0.60338217       0.60348824       0.39651176 </v>
    <v>       0.39645885       0.89645885       0.89645885 </v>
    <v>       0.35334481       0.64644201       0.14665519 </v>
    <v>       0.14573481       0.35426519       0.64573481 </v>
    <v>       0.14573481       0.64573481       0.35426519 </v>
    <v>       0.35334481       0.35355799       0.85334481 </v>
    <v>       0.89651176       0.10338217       0.60348824 </v>
    <v>       0.10348824       0.39651176       0.10338217 </v>
    <v>       0.10348824       0.10338217       0.39651176 </v>
    <v>       0.89651176       0.39651176       0.89661783 </v>
    <v>       0.85355799       0.14665519       0.14665519 </v>
    <v>       0.64665519       0.85334481       0.64644201 </v>
    <v>       0.64665519       0.14665519       0.35355799 </v>
    <v>       0.85355799       0.85334481       0.85334481 </v>
    <v>       0.89651176       0.60348824       0.10338217 </v>
    <v>       0.10348824       0.89661783       0.60348824 </v>
    <v>       0.10348824       0.60348824       0.89661783 </v>
    <v>       0.89651176       0.89661783       0.39651176 </v>
    <v>       0.85426519       0.64573481       0.64573481 </v>
    <v>       0.64665519       0.35355799       0.14665519 </v>
    <v>       0.64665519       0.64644201       0.85334481 </v>
    <v>       0.85426519       0.35426519       0.35426519 </v>
   </varray>
  </structure>
  <varray name="forces" >
   <v>      -0.03341239       0.03341239       0.03341239 </v>
   <v>      -0.00000000       0.00000000      -0.00000000 </v>
   <v>      -0.03341239      -0.03341239      -0.03341239 </v>
   <v>      -0.00000000       0.00000000      -0.00000000 </v>
   <v>       0.03341239       0.03341239      -0.03341239 </v>
   <v>      -0.00000000       0.00000000      -0.00000000 </v>
   <v>       0.03341239      -0.03341239       0.03341239 </v>
   <v>      -0.02169703      -0.03763271       0.02169703 </v>
   <v>       0.01292656      -0.01292656       0.01292656 </v>
   <v>      -0.03763271       0.02169703      -0.02169703 </v>
   <v>      -0.02169703       0.03763271      -0.02169703 </v>
   <v>      -0.02169703       0.02169703      -0.03763271 </v>
   <v>      -0.03763271      -0.02169703       0.02169703 </v>
   <v>       0.01292656       0.01292656      -0.01292656 </v>
   <v>      -0.02169703      -0.02169703       0.03763271 </v>
   <v>      -0.01292656       0.01292656       0.01292656 </v>
   <v>       0.02169703       0.03763271       0.02169703 </v>
   <v>       0.02169703       0.02169703       0.03763271 </v>
   <v>      -0.01292656      -0.01292656      -0.01292656 </v>
   <v>       0.03763271       0.02169703       0.02169703 </v>
   <v>       0.02169703      -0.02169703      -0.03763271 </v>
   <v>       0.02169703      -0.03763271      -0.02169703 </v>
   <v>       0.03763271      -0.02169703      -0.02169703 </v>
   <v>      -0.02890584       0.02890584       0.02890584 </v>
   <v>      -0.01067710      -0.02029995       0.02029995 </v>
   <v>       0.02890584       0.02890584      -0.02890584 </v>
   <v>       0.01067710      -0.02029995      -0.02029995 </v>
   <v>      -0.01538216       0.01538216      -0.03134737 </v>
   <v>      -0.03134737      -0.01538216       0.01538216 </v>
   <v>      -0.03134737       0.01538216      -0.01538216 </v>
   <v>      -0.01538216      -0.01538216       0.03134737 </v>
   <v>       0.01067710       0.02029995       0.02029995 </v>
   <v>       0.02890584      -0.02890584       0.02890584 </v>
   <v>      -0.01067710       0.02029995      -0.02029995 </v>
   <v>      -0.02890584      -0.02890584      -0.02890584 </v>
   <v>      -0.01538216      -0.03134737       0.01538216 </v>
   <v>      -0.18797669       0.18797669      -0.18797669 </v>
   <v>      -0.18797669      -0.18797669       0.18797669 </v>
   <v>      -0.01538216       0.03134737      -0.01538216 </v>
   <v>      -0.02029995      -0.01067710       0.02029995 </v>
   <v>       0.02029995      -0.02029995      -0.01067710 </v>
   <v>       0.02029995      -0.01067710      -0.02029995 </v>
   <v>      -0.02029995      -0.02029995       0.01067710 </v>
   <v>       0.03134737       0.01538216       0.01538216 </v>
   <v>       0.01538216      -0.01538216      -0.03134737 </v>
   <v>       0.01538216       0.01538216       0.03134737 </v>
   <v>       0.03134737      -0.01538216      -0.01538216 </v>
   <v>      -0.02029995       0.02029995      -0.01067710 </v>
   <v>       0.02029995       0.01067710       0.02029995 </v>
   <v>       0.02029995       0.02029995       0.01067710 </v>
   <v>      -0.02029995       0.01067710      -0.02029995 </v>
   <v>       0.18797669      -0.18797669      -0.18797669 </v>
   <v>       0.01538216       0.03134737       0.01538216 </v>
   <v>       0.01538216      -0.03134737      -0.01538216 </v>
   <v>       0.18797669       0.18797669       0.18797669 </v>
  </varray>
  <varray name="stress" >
   <v>       0.49420965       0.00000000       0.00000000 </v>
   <v>       0.00000000       0.49420965      -0.00000000 </v>
   <v>       0.00000000      -0.00000000       0.49420965 </v>
  </varray>
  <energy>
   <i name="e_fr_energy">   -290.96498854 </i>
   <i name="e_wo_entrp">   -290.96498854 </i>
   <i name="e_0_energy">      0.00000000 </i>
  </energy>
  <time name="totalsc">   61.30   61.64</time>
 </calculation>
 <calculation>
  <scstep>
   <time name="dav">    5.31    5.34</time>
   <time name="total">    5.71    5.74</time>
   <energy>
    <i name="alphaZ">   1334.74341842 </i>
    <i name="ewald"> -18796.53098253 </i>
    <i name="hartreedc"> -10473.19277095 </i>
    <i name="XCdc">    871.23077053 </i>
    <i name="pawpsdc">  31025.38759999 </i>
    <i name="pawaedc"> -30468.49043537 </i>
    <i name="eentropy">      0.00000000 </i>
    <i name="bandstr">  -5538.16013146 </i>
    <i name="atom">  31754.00826902 </i>
    <i name="e_fr_energy">   -291.00426235 </i>
    <i name="e_wo_entrp">   -291.00426235 </i>
    <i name="e_0_energy">   -291.00426235 </i>
   </energy>
  </scstep>
  <scstep>
   <time name="dav">    5.71    5.74</time>
   <time name="total">    6.10    6.14</time>
   <energy>
    <i name="e_fr_energy">   -290.97575646 </i>
    <i name="e_wo_entrp">   -290.97575646 </i>
    <i name="e_0_energy">   -290.97575646 </i>
   </energy>
  </scstep>
  <scstep>
   <time name="dav">    5.47    5.50</time>
   <time name="total">    5.86    5.89</time>
   <energy>
    <i name="e_fr_energy">   -290.96982246 </i>
    <i name="e_wo_entrp">   -290.96982246 </i>
    <i name="e_0_energy">   -290.96982246 </i>
   </energy>
  </scstep>
  <scstep>
   <time name="dav">    5.60    5.63</time>
   <time name="total">    5.99    6.02</time>
   <energy>
    <i name="e_fr_energy">   -290.96908548 </i>
    <i name="e_wo_entrp">   -290.96908548 </i>
    <i name="e_0_energy">   -290.96908548 </i>
   </energy>
  </scstep>
  <scstep>
   <time name="dav">    6.27    6.30</time>
   <time name="total">    6.66    6.69</time>
   <energy>
    <i name="e_fr_energy">   -290.96915545 </i>
    <i name="e_wo_entrp">   -290.96915545 </i>
    <i name="e_0_energy">   -290.96915545 </i>
   </energy>
  </scstep>
  <scstep>
   <time name="dav">    5.43    5.46</time>
   <time name="total">    5.82    5.85</time>
   <energy>
    <i name="e_fr_energy">   -290.96914231 </i>
    <i name="e_wo_entrp">   -290.96914231 </i>
    <i name="e_0_energy">   -290.96914231 </i>
   </energy>
  </scstep>
  <scstep>
   <time name="dav">    5.26    5.29</time>
   <time name="total">    5.65    5.68</time>
   <energy>
    <i name="e_fr_energy">   -290.96915274 </i>
    <i name="e_wo_entrp">   -290.96915274 </i>
    <i name="e_0_energy">   -290.96915274 </i>
   </energy>
  </scstep>
  <scstep>
   <time name="dav">    3.92    3.94</time>
   <time name="total">    4.31    4.33</time>
   <energy>
    <i name="e_fr_energy">   -290.96915141 </i>
    <i name="e_wo_entrp">   -290.96915141 </i>
    <i name="e_0_energy">   -290.96915141 </i>
   </energy>
  </scstep>
  <scstep>
   <time name="dav">    3.47    3.49</time>
   <time name="total">    3.86    3.88</time>
   <energy>
    <i name="e_fr_energy">   -290.96914958 </i>
    <i name="e_wo_entrp">   -290.96914958 </i>
    <i name="e_0_energy">   -290.96914958 </i>
   </energy>
  </scstep>
  <scstep>
   <time name="dav">    3.45    3.47</time>
   <time name="total">    3.53    3.55</time>
   <energy>
    <i name="alphaZ">   1334.74341842 </i>
    <i name="ewald"> -18796.53098253 </i>
    <i name="hartreedc"> -10449.13736214 </i>
    <i name="XCdc">    870.09876864 </i>
    <i name="pawpsdc">  31103.94211569 </i>
    <i name="pawaedc"> -30547.13484808 </i>
    <i name="eentropy">      0.00000000 </i>
    <i name="bandstr">  -5560.95852776 </i>
    <i name="atom">  31754.00826902 </i>
    <i name="e_fr_energy">   -290.96914874 </i>
    <i name="e_wo_entrp">   -290.96914874 </i>
    <i name="e_0_energy">   -290.96914874 </i>
   </energy>
  </scstep>
  <structure>
   <crystal>
    <varray name="basis" >
     <v>      11.86249265      -0.00000000       0.00000000 </v>
     <v>      -0.00000000      11.86249265       0.00000000 </v>
     <v>       0.00000000       0.00000000      11.86249265 </v>
    </varray>
    <i name="volume">   1669.27492387 </i>
    <varray name="rec_basis" >
     <v>       0.08429931       0.00000000      -0.00000000 </v>
     <v>       0.00000000       0.08429931      -0.00000000 </v>
     <v>      -0.00000000      -0.00000000       0.08429931 </v>
    </varray>
   </crystal>
   <varray name="positions" >
    <v>       0.24980544       0.25019456       0.25019456 </v>
    <v>       0.50000000      -0.00000000       0.50000000 </v>
    <v>       0.24980544       0.74980544       0.74980544 </v>
    <v>       0.50000000       0.50000000      -0.00000000 </v>
    <v>       0.75019456       0.25019456       0.74980544 </v>
    <v>      -0.00000000      -0.00000000      -0.00000000 </v>
    <v>       0.75019456       0.74980544       0.25019456 </v>
    <v>       0.12485161       0.87494071       0.37514839 </v>
    <v>       0.37511096       0.12488904       0.87511096 </v>
    <v>       0.37494071       0.37514839       0.62485161 </v>
    <v>       0.12485161       0.12505929       0.62485161 </v>
    <v>       0.12485161       0.37514839       0.87494071 </v>
    <v>       0.37494071       0.62485161       0.37514839 </v>
    <v>       0.37511096       0.87511096       0.12488904 </v>
    <v>       0.12485161       0.62485161       0.12505929 </v>
    <v>       0.62488904       0.87511096       0.87511096 </v>
    <v>       0.87514839       0.12505929       0.37514839 </v>
    <v>       0.87514839       0.37514839       0.12505929 </v>
    <v>       0.62488904       0.12488904       0.12488904 </v>
    <v>       0.62505929       0.37514839       0.37514839 </v>
    <v>       0.87514839       0.62485161       0.87494071 </v>
    <v>       0.87514839       0.87494071       0.62485161 </v>
    <v>       0.62505929       0.62485161       0.62485161 </v>
    <v>       0.39644742       0.10355258       0.10355258 </v>
    <v>       0.60332691       0.39652252       0.60347748 </v>
    <v>       0.60355258       0.10355258       0.89644742 </v>
    <v>       0.39667309       0.39652252       0.39652252 </v>
    <v>       0.35327387       0.14672613       0.64642352 </v>
    <v>       0.14642352       0.85327387       0.14672613 </v>
    <v>       0.14642352       0.14672613       0.85327387 </v>
    <v>       0.35327387       0.85327387       0.35357648 </v>
    <v>       0.39667309       0.60347748       0.60347748 </v>
    <v>       0.60355258       0.89644742       0.10355258 </v>
    <v>       0.60332691       0.60347748       0.39652252 </v>
    <v>       0.39644742       0.89644742       0.89644742 </v>
    <v>       0.35327387       0.64642352       0.14672613 </v>
    <v>       0.14541965       0.35458035       0.64541965 </v>
    <v>       0.14541965       0.64541965       0.35458035 </v>
    <v>       0.35327387       0.35357648       0.85327387 </v>
    <v>       0.89652252       0.10332691       0.60347748 </v>
    <v>       0.10347748       0.39652252       0.10332691 </v>
    <v>       0.10347748       0.10332691       0.39652252 </v>
    <v>       0.89652252       0.39652252       0.89667309 </v>
    <v>       0.85357648       0.14672613       0.14672613 </v>
    <v>       0.64672613       0.85327387       0.64642352 </v>
    <v>       0.64672613       0.14672613       0.35357648 </v>
    <v>       0.85357648       0.85327387       0.85327387 </v>
    <v>       0.89652252       0.60347748       0.10332691 </v>
    <v>       0.10347748       0.89667309       0.60347748 </v>
    <v>       0.10347748       0.60347748       0.89667309 </v>
    <v>       0.89652252       0.89667309       0.39652252 </v>
    <v>       0.85458035       0.64541965       0.64541965 </v>
    <v>       0.64672613       0.35357648       0.14672613 </v>
    <v>       0.64672613       0.64642352       0.85327387 </v>
    <v>       0.85458035       0.35458035       0.35458035 </v>
   </varray>
  </structure>
  <varray name="forces" >
   <v>      -0.03219210       0.03219210       0.03219210 </v>
   <v>      -0.00000000       0.00000000      -0.00000000 </v>
   <v>      -0.03219210      -0.03219210      -0.03219210 </v>
   <v>      -0.00000000       0.00000000      -0.00000000 </v>
   <v>       0.03219210       0.03219210      -0.03219210 </v>
   <v>      -0.00000000       0.00000000      -0.00000000 </v>
   <v>       0.03219210      -0.03219210       0.03219210 </v>
   <v>      -0.01966690      -0.04957502       0.01966690 </v>
   <v>       0.00935970      -0.00935970       0.00935970 </v>
   <v>      -0.04957502       0.01966690      -0.01966690 </v>
   <v>      -0.01966690       0.04957502      -0.01966690 </v>
   <v>      -0.01966690       0.01966690      -0.04957502 </v>
   <v>      -0.04957502      -0.01966690       0.01966690 </v>
   <v>       0.00935970       0.00935970      -0.00935970 </v>
   <v>      -0.01966690      -0.01966690       0.04957502 </v>
   <v>      -0.00935970       0.00935970       0.00935970 </v>
   <v>       0.01966690       0.04957502       0.01966690 </v>
   <v>       0.01966690       0.01966690       0.04957502 </v>
   <v>      -0.00935970      -0.00935970      -0.00935970 </v>
   <v>       0.04957502       0.01966690       0.01966690 </v>
   <v>       0.01966690      -0.01966690      -0.04957502 </v>
   <v>       0.01966690      -0.04957502      -0.01966690 </v>
   <v>       0.04957502      -0.01966690      -0.01966690 </v>
   <v>      -0.04064376       0.04064376       0.04064376 </v>
   <v>       0.00264656      -0.03103222       0.03103222 </v>
   <v>       0.04064376       0.04064376      -0.04064376 </v>
   <v>      -0.00264656      -0.03103222      -0.03103222 </v>
   <v>      -0.00599917       0.00599917      -0.04697985 </v>
   <v>      -0.04697985      -0.00599917       0.00599917 </v>
   <v>      -0.04697985       0.00599917      -0.00599917 </v>
   <v>      -0.00599917      -0.00599917       0.04697985 </v>
   <v>      -0.00264656       0.03103222       0.03103222 </v>
   <v>       0.04064376      -0.04064376       0.04064376 </v>
   <v>       0.00264656       0.03103222      -0.03103222 </v>
   <v>      -0.04064376      -0.04064376      -0.04064376 </v>
   <v>      -0.00599917      -0.04697985       0.00599917 </v>
   <v>      -0.19370328       0.19370328      -0.19370328 </v>
   <v>      -0.19370328      -0.19370328       0.19370328 </v>
   <v>      -0.00599917       0.04697985      -0.00599917 </v>
   <v>      -0.03103222       0.00264656       0.03103222 </v>
   <v>       0.03103222      -0.03103222       0.00264656 </v>
   <v>       0.03103222       0.00264656      -0.03103222 </v>
   <v>      -0.03103222      -0.03103222      -0.00264656 </v>
   <v>       0.04697985       0.00599917       0.00599917 </v>
   <v>       0.00599917      -0.00599917      -0.04697985 </v>
   <v>       0.00599917       0.00599917       0.04697985 </v>
   <v>       0.04697985      -0.00599917      -0.00599917 </v>
   <v>      -0.03103222       0.03103222       0.00264656 </v>
   <v>       0.03103222      -0.00264656       0.03103222 </v>
   <v>       0.03103222       0.03103222      -0.00264656 </v>
   <v>      -0.03103222      -0.00264656      -0.03103222 </v>
   <v>       0.19370328      -0.19370328      -0.19370328 </v>
   <v>       0.00599917       0.04697985       0.00599917 </v>
   <v>       0.00599917      -0.04697985      -0.00599917 </v>
   <v>       0.19370328       0.19370328       0.19370328 </v>
  </varray>
  <varray name="stress" >
   <v>       2.21107540       0.00000000       0.00000000 </v>
   <v>       0.00000000       2.21107540      -0.00000000 </v>
   <v>      -0.00000000      -0.00000000       2.21107540 </v>
  </varray>
  <energy>
   <i name="e_fr_energy">   -290.96914874 </i>
   <i name="e_wo_entrp">   -290.96914874 </i>
   <i name="e_0_energy">      0.00000000 </i>
  </energy>
  <time name="totalsc">   58.77   59.11</time>
 </calculation>
 <calculation>
  <scstep>
   <time name="dav">    4.79    4.81</time>
   <time name="total">    5.18    5.21</time>
   <energy>
    <i name="alphaZ">   1335.37639407 </i>
    <i name="ewald"> -18824.56943315 </i>
    <i name="hartreedc"> -10426.82051492 </i>
    <i name="XCdc">    870.11140903 </i>
    <i name="pawpsdc">  31103.86616260 </i>
    <i name="pawaedc"> -30547.05876571 </i>
    <i name="eentropy">      0.00000000 </i>
    <i name="bandstr">  -5555.89777140 </i>
    <i name="atom">  31754.00826902 </i>
    <i name="e_fr_energy">   -290.98425047 </i>
    <i name="e_wo_entrp">   -290.98425047 </i>
    <i name="e_0_energy">   -290.98425047 </i>
   </energy>
  </scstep>
  <scstep>
   <time name="dav">    5.37    5.40</time>
   <time name="total">    5.76    5.79</time>
   <energy>
    <i name="e_fr_energy">   -291.00630844 </i>
    <i name="e_wo_entrp">   -291.00630844 </i>
    <i name="e_0_energy">   -291.00630844 </i>
   </energy>
  </scstep>
  <scstep>
   <time name="dav">    6.24    6.27</time>
   <time name="total">    6.63    6.66</time>
   <energy>
    <i name="e_fr_energy">   -291.00574362 </i>
    <i name="e_wo_entrp">   -291.00574362 </i>
    <i name="e_0_energy">   -291.00574362 </i>
   </energy>
  </scstep>
  <scstep>
   <time name="dav">    5.99    6.02</time>
   <time name="total">    6.38    6.41</time>
   <energy>
    <i name="e_fr_energy">   -291.00562503 </i>
    <i name="e_wo_entrp">   -291.00562503 </i>
    <i name="e_0_energy">   -291.00562503 </i>
   </energy>
  </scstep>
  <scstep>
   <time name="dav">    5.57    5.60</time>
   <time name="total">    5.96    5.99</time>
   <energy>
    <i name="e_fr_energy">   -291.00543636 </i>
    <i name="e_wo_entrp">   -291.00543636 </i>
    <i name="e_0_energy">   -291.00543636 </i>
   </energy>
  </scstep>
  <scstep>
   <time name="dav">    5.58    5.61</time>
   <time name="total">    5.97    6.00</time>
   <energy>
    <i name="e_fr_energy">   -291.00542072 </i>
    <i name="e_wo_entrp">   -291.00542072 </i>
    <i name="e_0_energy">   -291.00542072 </i>
   </energy>
  </scstep>
  <scstep>
   <time name="dav">    4.86    4.89</time>
   <time name="total">    5.25    5.28</time>
   <energy>
    <i name="e_fr_energy">   -291.00542787 </i>
    <i name="e_wo_entrp">   -291.00542787 </i>
    <i name="e_0_energy">   -291.00542787 </i>
   </energy>
  </scstep>
  <scstep>
   <time name="dav">    4.26    4.28</time>
   <time name="total">    4.64    4.67</time>
   <energy>
    <i name="e_fr_energy">   -291.00542225 </i>
    <i name="e_wo_entrp">   -291.00542225 </i>
    <i name="e_0_energy">   -291.00542225 </i>
   </energy>
  </scstep>
  <scstep>
   <time name="dav">    3.52    3.54</time>
   <time name="total">    3.91    3.93</time>
   <energy>
    <i name="e_fr_energy">   -291.00542525 </i>
    <i name="e_wo_entrp">   -291.00542525 </i>
    <i name="e_0_energy">   -291.00542525 </i>
   </energy>
  </scstep>
  <scstep>
   <time name="dav">    3.47    3.49</time>
   <time name="total">    3.86    3.88</time>
   <energy>
    <i name="e_fr_energy">   -291.00542383 </i>
    <i name="e_wo_entrp">   -291.00542383 </i>
    <i name="e_0_energy">   -291.00542383 </i>
   </energy>
  </scstep>
  <scstep>
   <time name="dav">    3.45    3.47</time>
   <time name="total">    3.54    3.56</time>
   <energy>
    <i name="alphaZ">   1335.37639407 </i>
    <i name="ewald"> -18824.56943315 </i>
    <i name="hartreedc"> -10422.65145290 </i>
    <i name="XCdc">    869.96538592 </i>
    <i name="pawpsdc">  31079.76250951 </i>
    <i name="pawaedc"> -30522.94337125 </i>
    <i name="eentropy">      0.00000000 </i>
    <i name="bandstr">  -5559.95372435 </i>
    <i name="atom">  31754.00826902 </i>
    <i name="e_fr_energy">   -291.00542313 </i>
    <i name="e_wo_entrp">   -291.00542313 </i>
    <i name="e_0_energy">   -291.00542313 </i>
   </energy>
  </scstep>
  <structure>
   <crystal>
    <varray name="basis" >
     <v>      11.86061806      -0.00000000       0.00000000 </v>
     <v>      -0.00000000      11.86061806      -0.00000000 </v>
     <v>      -0.00000000      -0.00000000      11.86061806 </v>
    </varray>
    <i name="volume">   1668.48367850 </i>
    <varray name="rec_basis" >
     <v>       0.08431264       0.00000000       0.00000000 </v>
     <v>       0.00000000       0.08431264       0.00000000 </v>
     <v>      -0.00000000       0.00000000       0.08431264 </v>
    </varray>
   </crystal>
   <varray name="positions" >
    <v>       0.24960089       0.25039911       0.25039911 </v>
    <v>       0.50000000      -0.00000000       0.50000000 </v>
    <v>       0.24960089       0.74960089       0.74960089 </v>
    <v>       0.50000000       0.50000000      -0.00000000 </v>
    <v>       0.75039911       0.25039911       0.74960089 </v>
    <v>      -0.00000000      -0.00000000      -0.00000000 </v>
    <v>       0.75039911       0.74960089       0.25039911 </v>
    <v>       0.12471361       0.87473176       0.37528639 </v>
    <v>       0.37519445       0.12480555       0.87519445 </v>
    <v>       0.37473176       0.37528639       0.62471361 </v>
    <v>       0.12471361       0.12526824       0.62471361 </v>
    <v>       0.12471361       0.37528639       0.87473176 </v>
    <v>       0.37473176       0.62471361       0.37528639 </v>
    <v>       0.37519445       0.87519445       0.12480555 </v>
    <v>       0.12471361       0.62471361       0.12526824 </v>
    <v>       0.62480555       0.87519445       0.87519445 </v>
    <v>       0.87528639       0.12526824       0.37528639 </v>
    <v>       0.87528639       0.37528639       0.12526824 </v>
    <v>       0.62480555       0.12480555       0.12480555 </v>
    <v>       0.62526824       0.37528639       0.37528639 </v>
    <v>       0.87528639       0.62471361       0.87473176 </v>
    <v>       0.87528639       0.87473176       0.62471361 </v>
    <v>       0.62526824       0.62471361       0.62471361 </v>
    <v>       0.39628050       0.10371950       0.10371950 </v>
    <v>       0.60325413       0.39642419       0.60357581 </v>
    <v>       0.60371950       0.10371950       0.89628050 </v>
    <v>       0.39674587       0.39642419       0.39642419 </v>
    <v>       0.35314581       0.14685419       0.64622269 </v>
    <v>       0.14622269       0.85314581       0.14685419 </v>
    <v>       0.14622269       0.14685419       0.85314581 </v>
    <v>       0.35314581       0.85314581       0.35377731 </v>
    <v>       0.39674587       0.60357581       0.60357581 </v>
    <v>       0.60371950       0.89628050       0.10371950 </v>
    <v>       0.60325413       0.60357581       0.39642419 </v>
    <v>       0.39628050       0.89628050       0.89628050 </v>
    <v>       0.35314581       0.64622269       0.14685419 </v>
    <v>       0.14423481       0.35576519       0.64423481 </v>
    <v>       0.14423481       0.64423481       0.35576519 </v>
    <v>       0.35314581       0.35377731       0.85314581 </v>
    <v>       0.89642419       0.10325413       0.60357581 </v>
    <v>       0.10357581       0.39642419       0.10325413 </v>
    <v>       0.10357581       0.10325413       0.39642419 </v>
    <v>       0.89642419       0.39642419       0.89674587 </v>
    <v>       0.85377731       0.14685419       0.14685419 </v>
    <v>       0.64685419       0.85314581       0.64622269 </v>
    <v>       0.64685419       0.14685419       0.35377731 </v>
    <v>       0.85377731       0.85314581       0.85314581 </v>
    <v>       0.89642419       0.60357581       0.10325413 </v>
    <v>       0.10357581       0.89674587       0.60357581 </v>
    <v>       0.10357581       0.60357581       0.89674587 </v>
    <v>       0.89642419       0.89674587       0.39642419 </v>
    <v>       0.85576519       0.64423481       0.64423481 </v>
    <v>       0.64685419       0.35377731       0.14685419 </v>
    <v>       0.64685419       0.64622269       0.85314581 </v>
    <v>       0.85576519       0.35576519       0.35576519 </v>
   </varray>
  </structure>
  <varray name="forces" >
   <v>      -0.02885831       0.02885831       0.02885831 </v>
   <v>       0.00000000       0.00000000       0.00000000 </v>
   <v>      -0.02885831      -0.02885831      -0.02885831 </v>
   <v>       0.00000000       0.00000000       0.00000000 </v>
   <v>       0.02885831       0.02885831      -0.02885831 </v>
   <v>       0.00000000       0.00000000       0.00000000 </v>
   <v>       0.02885831      -0.02885831       0.02885831 </v>
   <v>      -0.01628133      -0.07800846       0.01628133 </v>
   <v>       0.00194197      -0.00194197       0.00194197 </v>
   <v>      -0.07800846       0.01628133      -0.01628133 </v>
   <v>      -0.01628133       0.07800846      -0.01628133 </v>
   <v>      -0.01628133       0.01628133      -0.07800846 </v>
   <v>      -0.07800846      -0.01628133       0.01628133 </v>
   <v>       0.00194197       0.00194197      -0.00194197 </v>
   <v>      -0.01628133      -0.01628133       0.07800846 </v>
   <v>      -0.00194197       0.00194197       0.00194197 </v>
   <v>       0.01628133       0.07800846       0.01628133 </v>
   <v>       0.01628133       0.01628133       0.07800846 </v>
   <v>      -0.00194197      -0.00194197      -0.00194197 </v>
   <v>       0.07800846       0.01628133       0.01628133 </v>
   <v>       0.01628133      -0.01628133      -0.07800846 </v>
   <v>       0.01628133      -0.07800846      -0.01628133 </v>
   <v>       0.07800846      -0.01628133      -0.01628133 </v>
   <v>      -0.03573835       0.03573835       0.03573835 </v>
   <v>      -0.00996608      -0.02857416       0.02857416 </v>
   <v>       0.03573835       0.03573835      -0.03573835 </v>
   <v>       0.00996608      -0.02857416      -0.02857416 </v>
   <v>      -0.01358518       0.01358518      -0.03340392 </v>
   <v>      -0.03340392      -0.01358518       0.01358518 </v>
   <v>      -0.03340392       0.01358518      -0.01358518 </v>
   <v>      -0.01358518      -0.01358518       0.03340392 </v>
   <v>       0.00996608       0.02857416       0.02857416 </v>
   <v>       0.03573835      -0.03573835       0.03573835 </v>
   <v>      -0.00996608       0.02857416      -0.02857416 </v>
   <v>      -0.03573835      -0.03573835      -0.03573835 </v>
   <v>      -0.01358518      -0.03340392       0.01358518 </v>
   <v>      -0.14871039       0.14871039      -0.14871039 </v>
   <v>      -0.14871039      -0.14871039       0.14871039 </v>
   <v>      -0.01358518       0.03340392      -0.01358518 </v>
   <v>      -0.02857416      -0.00996608       0.02857416 </v>
   <v>       0.02857416      -0.02857416      -0.00996608 </v>
   <v>       0.02857416      -0.00996608      -0.02857416 </v>
   <v>      -0.02857416      -0.02857416       0.00996608 </v>
   <v>       0.03340392       0.01358518       0.01358518 </v>
   <v>       0.01358518      -0.01358518      -0.03340392 </v>
   <v>       0.01358518       0.01358518       0.03340392 </v>
   <v>       0.03340392      -0.01358518      -0.01358518 </v>
   <v>      -0.02857416       0.02857416      -0.00996608 </v>
   <v>       0.02857416       0.00996608       0.02857416 </v>
   <v>       0.02857416       0.02857416       0.00996608 </v>
   <v>      -0.02857416       0.00996608      -0.02857416 </v>
[...]
       <r>   -46.9368     0.0000    32.0000 </r>
       <r>   -46.7449     0.0000    32.0000 </r>
       <r>   -46.5530     0.0000    32.0000 </r>
       <r>   -46.3611     0.0000    32.0000 </r>
       <r>   -46.1692     0.0000    32.0000 </r>
       <r>   -45.9773     0.0000    32.0000 </r>
       <r>   -45.7854     0.0000    32.0000 </r>
       <r>   -45.5934     0.0000    32.0000 </r>
       <r>   -45.4015     0.0000    32.0000 </r>
       <r>   -45.2096     0.0000    32.0000 </r>
       <r>   -45.0177     0.0000    32.0000 </r>
       <r>   -44.8258     0.0000    32.0000 </r>
       <r>   -44.6339     0.0000    32.0000 </r>
       <r>   -44.4420     0.0000    32.0000 </r>
       <r>   -44.2501     0.0000    32.0000 </r>
       <r>   -44.0582     0.0000    32.0000 </r>
       <r>   -43.8663     0.0000    32.0000 </r>
       <r>   -43.6743     0.0000    32.0000 </r>
       <r>   -43.4824     0.0000    32.0000 </r>
       <r>   -43.2905     0.0000    32.0000 </r>
       <r>   -43.0986     0.0000    32.0000 </r>
       <r>   -42.9067     0.0000    32.0000 </r>
       <r>   -42.7148     0.0000    32.0000 </r>
       <r>   -42.5229     0.0000    32.0000 </r>
       <r>   -42.3310     0.0000    32.0000 </r>
       <r>   -42.1391     0.0000    32.0000 </r>
       <r>   -41.9471     0.0000    32.0000 </r>
       <r>   -41.7552     0.0000    32.0000 </r>
       <r>   -41.5633     0.0000    32.0000 </r>
       <r>   -41.3714     0.0000    32.0000 </r>
       <r>   -41.1795     0.0000    32.0000 </r>
       <r>   -40.9876     0.0000    32.0000 </r>
       <r>   -40.7957     0.0000    32.0000 </r>
       <r>   -40.6038     0.0000    32.0000 </r>
       <r>   -40.4119     0.0000    32.0000 </r>
       <r>   -40.2199     0.0000    32.0000 </r>
       <r>   -40.0280     0.0000    32.0000 </r>
       <r>   -39.8361     0.0000    32.0000 </r>
       <r>   -39.6442     0.0000    32.0000 </r>
       <r>   -39.4523     0.0000    32.0000 </r>
       <r>   -39.2604     0.0000    32.0000 </r>
       <r>   -39.0685     0.0000    32.0000 </r>
       <r>   -38.8766     0.0000    32.0000 </r>
       <r>   -38.6847     0.0000    32.0000 </r>
       <r>   -38.4927     0.0000    32.0000 </r>
       <r>   -38.3008     0.0000    32.0000 </r>
       <r>   -38.1089     0.0000    32.0000 </r>
       <r>   -37.9170     0.0000    32.0000 </r>
       <r>   -37.7251     0.0000    32.0000 </r>
       <r>   -37.5332     0.0000    32.0000 </r>
       <r>   -37.3413     0.0000    32.0000 </r>
       <r>   -37.1494     0.0000    32.0000 </r>
       <r>   -36.9575     0.0000    32.0000 </r>
       <r>   -36.7655     0.0000    32.0000 </r>
       <r>   -36.5736     0.0000    32.0000 </r>
       <r>   -36.3817     0.0000    32.0000 </r>
       <r>   -36.1898     0.0000    32.0000 </r>
       <r>   -35.9979     0.0000    32.0000 </r>
       <r>   -35.8060     0.0000    32.0000 </r>
       <r>   -35.6141     0.0000    32.0000 </r>
       <r>   -35.4222     0.0000    32.0000 </r>
       <r>   -35.2303     0.0000    32.0000 </r>
       <r>   -35.0383     0.0000    32.0000 </r>
       <r>   -34.8464     0.0000    32.0000 </r>
       <r>   -34.6545     0.0000    32.0000 </r>
       <r>   -34.4626     0.0000    32.0000 </r>
       <r>   -34.2707     0.0000    32.0000 </r>
       <r>   -34.0788     0.0000    32.0000 </r>
       <r>   -33.8869     0.0000    32.0000 </r>
       <r>   -33.6950     0.0000    32.0000 </r>
       <r>   -33.5031     0.0000    32.0000 </r>
       <r>   -33.3111     0.0000    32.0000 </r>
       <r>   -33.1192     0.0000    32.0000 </r>
       <r>   -32.9273     0.0000    32.0000 </r>
       <r>   -32.7354     0.0000    32.0000 </r>
       <r>   -32.5435     0.0000    32.0000 </r>
       <r>   -32.3516     0.0000    32.0000 </r>
       <r>   -32.1597     0.0000    32.0000 </r>
       <r>   -31.9678     0.0000    32.0000 </r>
       <r>   -31.7759     0.0000    32.0000 </r>
       <r>   -31.5839     0.0000    32.0000 </r>
       <r>   -31.3920     0.0000    32.0000 </r>
       <r>   -31.2001     0.0000    32.0000 </r>
       <r>   -31.0082     0.0000    32.0000 </r>
       <r>   -30.8163     0.0000    32.0000 </r>
       <r>   -30.6244     0.0000    32.0000 </r>
       <r>   -30.4325     0.0000    32.0000 </r>
       <r>   -30.2406     0.0000    32.0000 </r>
       <r>   -30.0487     0.0000    32.0000 </r>
       <r>   -29.8567     0.0000    32.0000 </r>
       <r>   -29.6648     0.0000    32.0000 </r>
       <r>   -29.4729     0.0000    32.0000 </r>
       <r>   -29.2810     0.0000    32.0000 </r>
       <r>   -29.0891     0.0000    32.0000 </r>
       <r>   -28.8972     0.0000    32.0000 </r>
       <r>   -28.7053     0.0000    32.0000 </r>
       <r>   -28.5134     0.0000    32.0000 </r>
       <r>   -28.3215     0.0000    32.0000 </r>
       <r>   -28.1295     0.0000    32.0000 </r>
       <r>   -27.9376     0.0000    32.0000 </r>
       <r>   -27.7457     0.0000    32.0000 </r>
       <r>   -27.5538     0.0000    32.0000 </r>
       <r>   -27.3619     0.0000    32.0000 </r>
       <r>   -27.1700     0.0000    64.0000 </r>
       <r>   -26.9781     0.0000   128.0000 </r>
       <r>   -26.7862     0.0000   128.0000 </r>
       <r>   -26.5943     0.0000   128.0000 </r>
       <r>   -26.4023     0.0000   128.0000 </r>
       <r>   -26.2104     0.0000   128.0000 </r>
       <r>   -26.0185     0.0000   128.0000 </r>
       <r>   -25.8266     0.0000   128.0000 </r>
       <r>   -25.6347     0.0000   128.0000 </r>
       <r>   -25.4428     0.0000   128.0000 </r>
       <r>   -25.2509     0.0000   128.0000 </r>
       <r>   -25.0590     0.0000   128.0000 </r>
       <r>   -24.8671     0.0000   128.0000 </r>
       <r>   -24.6751     0.0000   128.0000 </r>
       <r>   -24.4832     0.0000   128.0000 </r>
       <r>   -24.2913     0.0000   128.0000 </r>
       <r>   -24.0994     0.0000   128.0000 </r>
       <r>   -23.9075     0.0000   128.0000 </r>
       <r>   -23.7156     0.0000   128.0000 </r>
       <r>   -23.5237     0.0000   128.0000 </r>
       <r>   -23.3318     0.0000   128.0000 </r>
       <r>   -23.1399     0.0000   128.0000 </r>
       <r>   -22.9479     0.0000   128.0000 </r>
       <r>   -22.7560     0.0000   128.0000 </r>
       <r>   -22.5641     0.0000   128.0000 </r>
       <r>   -22.3722     0.0000   128.0000 </r>
       <r>   -22.1803     0.0000   128.0000 </r>
       <r>   -21.9884     0.0000   128.0000 </r>
       <r>   -21.7965     0.0000   128.0000 </r>
       <r>   -21.6046     0.0000   128.0000 </r>
       <r>   -21.4127     0.0000   128.0000 </r>
       <r>   -21.2207     0.0000   128.0000 </r>
       <r>   -21.0288     0.0000   128.0000 </r>
       <r>   -20.8369     0.0000   128.0000 </r>
       <r>   -20.6450     0.0000   128.0000 </r>
       <r>   -20.4531     0.0000   128.0000 </r>
       <r>   -20.2612     0.0000   128.0000 </r>
       <r>   -20.0693     0.0000   128.0000 </r>
       <r>   -19.8774     0.0000   128.0000 </r>
       <r>   -19.6855     0.0000   128.0000 </r>
       <r>   -19.4935     0.0000   128.0000 </r>
       <r>   -19.3016     0.0000   128.0000 </r>
       <r>   -19.1097     0.0000   128.0000 </r>
       <r>   -18.9178     0.0000   128.0000 </r>
       <r>   -18.7259     0.0000   128.0000 </r>
       <r>   -18.5340     0.0000   128.0000 </r>
       <r>   -18.3421     0.0000   128.0000 </r>
       <r>   -18.1502     0.0000   128.0000 </r>
       <r>   -17.9583     0.0000   128.0000 </r>
       <r>   -17.7663     0.0000   128.0000 </r>
       <r>   -17.5744     0.0000   128.0000 </r>
       <r>   -17.3825     0.0000   128.0000 </r>
       <r>   -17.1906     0.0000   128.0000 </r>
       <r>   -16.9987     0.0000   128.0000 </r>
       <r>   -16.8068     0.0000   128.0000 </r>
       <r>   -16.6149     0.0000   128.0000 </r>
       <r>   -16.4230     0.0000   128.0000 </r>
       <r>   -16.2311     0.0000   128.0000 </r>
       <r>   -16.0391     0.0000   128.0000 </r>
       <r>   -15.8472     0.0000   128.0000 </r>
       <r>   -15.6553     0.0000   128.0000 </r>
       <r>   -15.4634     0.0000   128.0000 </r>
       <r>   -15.2715     0.0000   128.0000 </r>
       <r>   -15.0796     0.0000   128.0000 </r>
       <r>   -14.8877     0.0000   128.0000 </r>
       <r>   -14.6958     0.0000   128.0000 </r>
       <r>   -14.5039     0.0000   128.0000 </r>
       <r>   -14.3119     0.0000   128.0000 </r>
       <r>   -14.1200     0.0000   128.0000 </r>
       <r>   -13.9281     0.0000   128.0000 </r>
       <r>   -13.7362     0.0000   128.0000 </r>
       <r>   -13.5443     0.0000   128.0000 </r>
       <r>   -13.3524     0.0000   128.0000 </r>
       <r>   -13.1605     0.0000   128.0000 </r>
       <r>   -12.9686     0.0000   128.0000 </r>
       <r>   -12.7767     0.0000   128.0000 </r>
       <r>   -12.5847     0.0000   128.0000 </r>
       <r>   -12.3928     0.0000   128.0000 </r>
       <r>   -12.2009     0.0000   128.0000 </r>
       <r>   -12.0090   694.6777   145.7778 </r>
       <r>   -11.8171     0.0000   170.0000 </r>
       <r>   -11.6252     0.0000   170.0000 </r>
       <r>   -11.4333    15.6080   170.8404 </r>
       <r>   -11.2414     0.0000   176.0000 </r>
       <r>   -11.0495    18.1732   182.3035 </r>
       <r>   -10.8575     0.0000   186.0000 </r>
       <r>   -10.6656   117.6881   188.5160 </r>
       <r>   -10.4737   713.7607   214.6638 </r>
       <r>   -10.2818     0.0000   234.0000 </r>
       <r>   -10.0899     0.0000   234.0000 </r>
       <r>    -9.8980     0.0000   234.0000 </r>
       <r>    -9.7061     0.0000   234.0000 </r>
       <r>    -9.5142     0.0000   234.0000 </r>
       <r>    -9.3223     0.0000   234.0000 </r>
       <r>    -9.1303     0.0000   234.0000 </r>
       <r>    -8.9384     0.0000   234.0000 </r>
       <r>    -8.7465     0.0000   234.0000 </r>
       <r>    -8.5546     0.0000   234.0000 </r>
       <r>    -8.3627     0.0000   234.0000 </r>
       <r>    -8.1708     0.0000   234.0000 </r>
       <r>    -7.9789     0.0000   234.0000 </r>
       <r>    -7.7870     0.0000   234.0000 </r>
       <r>    -7.5951     0.0000   234.0000 </r>
       <r>    -7.4031     0.0000   234.0000 </r>
       <r>    -7.2112     0.0000   234.0000 </r>
       <r>    -7.0193     0.0000   234.0000 </r>
       <r>    -6.8274     0.0000   234.0000 </r>
       <r>    -6.6355     0.0000   234.0000 </r>
       <r>    -6.4436     0.0000   234.0000 </r>
       <r>    -6.2517     0.0000   234.0000 </r>
       <r>    -6.0598     0.0000   234.0000 </r>
       <r>    -5.8679     0.0000   234.0000 </r>
       <r>    -5.6759     0.0000   234.0000 </r>
       <r>    -5.4840     0.0000   234.0000 </r>
       <r>    -5.2921     0.0000   234.0000 </r>
       <r>    -5.1002     0.0000   234.0000 </r>
       <r>    -4.9083     0.0000   234.0000 </r>
       <r>    -4.7164     0.0000   234.0000 </r>
       <r>    -4.5245     0.0000   234.0000 </r>
       <r>    -4.3326     0.0000   234.0000 </r>
       <r>    -4.1407     0.0000   234.0000 </r>
       <r>    -3.9487     0.0000   234.0000 </r>
       <r>    -3.7568     0.0000   234.0000 </r>
       <r>    -3.5649     0.0000   234.0000 </r>
       <r>    -3.3730     0.0000   234.0000 </r>
       <r>    -3.1811     0.0000   234.0000 </r>
       <r>    -2.9892     0.0000   234.0000 </r>
       <r>    -2.7973     0.0000   234.0000 </r>
       <r>    -2.6054     6.3526   234.3120 </r>
       <r>    -2.4135    43.6863   241.0073 </r>
       <r>    -2.2215    62.7067   254.0198 </r>
       <r>    -2.0296     3.8984   265.9966 </r>
       <r>    -1.8377   162.2081   274.8184 </r>
       <r>    -1.6458    21.5061   289.2893 </r>
       <r>    -1.4539   108.6139   300.6621 </r>
       <r>    -1.2620    36.1378   310.0144 </r>
       <r>    -1.0701    32.9513   315.6073 </r>
       <r>    -0.8782    22.2441   322.8342 </r>
       <r>    -0.6863   103.5011   334.1798 </r>
       <r>    -0.4943    68.4149   355.6461 </r>
       <r>    -0.3024    55.9734   364.0444 </r>
       <r>    -0.1105    55.6520   373.9068 </r>
       <r>     0.0814    89.3063   386.7437 </r>
       <r>     0.2733    12.2552   394.5599 </r>
       <r>     0.4652    33.6373   407.6698 </r>
       <r>     0.6571    57.1819   412.9398 </r>
       <r>     0.8490    59.1109   420.5531 </r>
       <r>     1.0409     0.0000   426.0000 </r>
       <r>     1.2329     0.0000   426.0000 </r>
       <r>     1.4248     0.0000   426.0000 </r>
       <r>     1.6167     0.0000   426.0000 </r>
       <r>     1.8086     0.0000   426.0000 </r>
       <r>     2.0005     0.0000   426.0000 </r>
       <r>     2.1924     0.0000   426.0000 </r>
       <r>     2.3843     0.0000   426.0000 </r>
       <r>     2.5762    15.4834   426.8278 </r>
       <r>     2.7681    44.1132   432.5750 </r>
       <r>     2.9601    50.7047   440.6919 </r>
       <r>     3.1520    70.3854   449.9707 </r>
       <r>     3.3439     0.0000   468.0000 </r>
       <r>     3.5358    54.4079   495.1812 </r>
       <r>     3.7277     0.0000   500.0000 </r>
       <r>     3.9196     0.0000   500.0000 </r>
       <r>     4.1115     0.0000   500.0000 </r>
       <r>     4.3034     0.0000   500.0000 </r>
       <r>     4.4953     0.0000   500.0000 </r>
       <r>     4.6873     0.0000   500.0000 </r>
       <r>     4.8792     0.0000   500.0000 </r>
       <r>     5.0711     0.0000   500.0000 </r>
       <r>     5.2630     0.0000   500.0000 </r>
       <r>     5.4549     0.0000   500.0000 </r>
       <r>     5.6468     0.0000   500.0000 </r>
       <r>     5.8387     0.0000   500.0000 </r>
       <r>     6.0306     0.0000   500.0000 </r>
       <r>     6.2225     0.0000   500.0000 </r>
      </set>
     </set>
    </array>
   </total>
  </dos>
 </calculation>
 <structure name="finalpos" >
  <crystal>
   <varray name="basis" >
    <v>      11.81085079      -0.00000000       0.00000000 </v>
    <v>      -0.00000000      11.81085079       0.00000000 </v>
    <v>      -0.00000000       0.00000000      11.81085079 </v>
   </varray>
   <i name="volume">   1647.56876211 </i>
   <varray name="rec_basis" >
    <v>       0.08466791       0.00000000       0.00000000 </v>
    <v>       0.00000000       0.08466791      -0.00000000 </v>
    <v>      -0.00000000      -0.00000000       0.08466791 </v>
   </varray>
  </crystal>
  <varray name="positions" >
   <v>       0.24130892       0.25869108       0.25869108 </v>
   <v>       0.50000000       0.00000000       0.50000000 </v>
   <v>       0.24130892       0.74130892       0.74130892 </v>
   <v>       0.50000000       0.50000000      -0.00000000 </v>
   <v>       0.75869108       0.25869108       0.74130892 </v>
   <v>      -0.00000000       0.00000000      -0.00000000 </v>
   <v>       0.75869108       0.74130892       0.25869108 </v>
   <v>       0.12307294       0.85994812       0.37692706 </v>
   <v>       0.37819222       0.12180778       0.87819222 </v>
   <v>       0.35994812       0.37692706       0.62307294 </v>
   <v>       0.12307294       0.14005188       0.62307294 </v>
   <v>       0.12307294       0.37692706       0.85994812 </v>
   <v>       0.35994812       0.62307294       0.37692706 </v>
   <v>       0.37819222       0.87819222       0.12180778 </v>
   <v>       0.12307294       0.62307294       0.14005188 </v>
   <v>       0.62180778       0.87819222       0.87819222 </v>
   <v>       0.87692706       0.14005188       0.37692706 </v>
   <v>       0.87692706       0.37692706       0.14005188 </v>
   <v>       0.62180778       0.12180778       0.12180778 </v>
   <v>       0.64005188       0.37692706       0.37692706 </v>
   <v>       0.87692706       0.62307294       0.85994812 </v>
   <v>       0.87692706       0.85994812       0.62307294 </v>
   <v>       0.64005188       0.62307294       0.62307294 </v>
   <v>       0.39203422       0.10796578       0.10796578 </v>
   <v>       0.59454835       0.39561999       0.60438001 </v>
   <v>       0.60796578       0.10796578       0.89203422 </v>
   <v>       0.40545165       0.39561999       0.39561999 </v>
   <v>       0.35036624       0.14963376       0.64468456 </v>
   <v>       0.14468456       0.85036624       0.14963376 </v>
   <v>       0.14468456       0.14963376       0.85036624 </v>
   <v>       0.35036624       0.85036624       0.35531544 </v>
   <v>       0.40545165       0.60438001       0.60438001 </v>
   <v>       0.60796578       0.89203422       0.10796578 </v>
   <v>       0.59454835       0.60438001       0.39561999 </v>
   <v>       0.39203422       0.89203422       0.89203422 </v>
   <v>       0.35036624       0.64468456       0.14963376 </v>
   <v>       0.12900675       0.37099325       0.62900675 </v>
   <v>       0.12900675       0.62900675       0.37099325 </v>
   <v>       0.35036624       0.35531544       0.85036624 </v>
   <v>       0.89561999       0.09454835       0.60438001 </v>
   <v>       0.10438001       0.39561999       0.09454835 </v>
   <v>       0.10438001       0.09454835       0.39561999 </v>
   <v>       0.89561999       0.39561999       0.90545165 </v>
   <v>       0.85531544       0.14963376       0.14963376 </v>
   <v>       0.64963376       0.85036624       0.64468456 </v>
   <v>       0.64963376       0.14963376       0.35531544 </v>
   <v>       0.85531544       0.85036624       0.85036624 </v>
   <v>       0.89561999       0.60438001       0.09454835 </v>
   <v>       0.10438001       0.90545165       0.60438001 </v>
   <v>       0.10438001       0.60438001       0.90545165 </v>
   <v>       0.89561999       0.90545165       0.39561999 </v>
   <v>       0.87099325       0.62900675       0.62900675 </v>
   <v>       0.64963376       0.35531544       0.14963376 </v>
   <v>       0.64963376       0.64468456       0.85036624 </v>
   <v>       0.87099325       0.37099325       0.37099325 </v>
  </varray>
  <varray name="selective"  type="logical" >
   <v type="logical" >  T  T  T </v>
   <v type="logical" >  T  T  T </v>
   <v type="logical" >  T  T  T </v>
   <v type="logical" >  T  T  T </v>
   <v type="logical" >  T  T  T </v>
   <v type="logical" >  T  T  T </v>
   <v type="logical" >  T  T  T </v>
   <v type="logical" >  T  T  T </v>
   <v type="logical" >  T  T  T </v>
   <v type="logical" >  T  T  T </v>
   <v type="logical" >  T  T  T </v>
   <v type="logical" >  T  T  T </v>
   <v type="logical" >  T  T  T </v>
   <v type="logical" >  T  T  T </v>
   <v type="logical" >  T  T  T </v>
   <v type="logical" >  T  T  T </v>
   <v type="logical" >  T  T  T </v>
   <v type="logical" >  T  T  T </v>
   <v type="logical" >  T  T  T </v>
   <v type="logical" >  T  T  T </v>
   <v type="logical" >  T  T  T </v>
   <v type="logical" >  T  T  T </v>
   <v type="logical" >  T  T  T </v>
   <v type="logical" >  T  T  T </v>
   <v type="logical" >  T  T  T </v>
   <v type="logical" >  T  T  T </v>
   <v type="logical" >  T  T  T </v>
   <v type="logical" >  T  T  T </v>
   <v type="logical" >  T  T  T </v>
   <v type="logical" >  T  T  T </v>
   <v type="logical" >  T  T  T </v>
   <v type="logical" >  T  T  T </v>
   <v type="logical" >  T  T  T </v>
   <v type="logical" >  T  T  T </v>
   <v type="logical" >  T  T  T </v>
   <v type="logical" >  T  T  T </v>
   <v type="logical" >  T  T  T </v>
   <v type="logical" >  T  T  T </v>
   <v type="logical" >  T  T  T </v>
   <v type="logical" >  T  T  T </v>
   <v type="logical" >  T  T  T </v>
   <v type="logical" >  T  T  T </v>
   <v type="logical" >  T  T  T </v>
   <v type="logical" >  T  T  T </v>
   <v type="logical" >  T  T  T </v>
   <v type="logical" >  T  T  T </v>
   <v type="logical" >  T  T  T </v>
   <v type="logical" >  T  T  T </v>
   <v type="logical" >  T  T  T </v>
   <v type="logical" >  T  T  T </v>
   <v type="logical" >  T  T  T </v>
   <v type="logical" >  T  T  T </v>
   <v type="logical" >  T  T  T </v>
   <v type="logical" >  T  T  T </v>
   <v type="logical" >  T  T  T </v>
  </varray>
  <nose>
   <v>      -3.00000000       0.00000000       0.00010000       0.00010000 </v>
  </nose>
 </structure>
</modeling>
