<?xml version="1.0" encoding="ISO-8859-1"?>
<modeling>
 <generator>
  <i name="program" type="string">vasp </i>
  <i name="version" type="string">5.4.1  </i>
  <i name="subversion" type="string">05Feb16 (build Feb 14 2019 11:27:30) gamma-only                       parallel </i>
  <i name="platform" type="string">IFC91_ompi </i>
  <i name="date" type="string">2020 11 18 </i>
  <i name="time" type="string">05:38:09 </i>
 </generator>
 <incar>
  <i type="string" name="PREC">normal</i>
  <i type="string" name="ALGO"> Fast</i>
  <i type="int" name="ISPIN">     2</i>
  <i type="int" name="IBRION">     2</i>
  <i type="int" name="NSW">   101</i>
  <i type="int" name="ISIF">     2</i>
  <i type="int" name="ISYM">     0</i>
  <i name="POTIM">      0.50000000</i>
  <i type="int" name="ISMEAR">     0</i>
  <i name="SIGMA">      0.00010000</i>
  <i type="logical" name="LWAVE"> F  </i>
  <i type="logical" name="LCHARG"> F  </i>
  <i type="logical" name="LVTOT"> F  </i>
  <i type="logical" name="LORBIT"> F  </i>
  <v type="int" name="KPOINT_BSE">    -1     0     0     0</v>
  <i type="string" name="GGA"> PE</i>
 </incar>
 <kpoints>
  <varray name="kpointlist" >
   <v>       0.00000000       0.00000000       0.00000000 </v>
  </varray>
  <varray name="weights" >
   <v>       1.00000000 </v>
  </varray>
 </kpoints>
 <parameters>
  <separator name="general" >
   <i type="string" name="SYSTEM">unknown system</i>
   <i type="logical" name="LCOMPAT"> F  </i>
  </separator>
  <separator name="electronic" >
   <i type="string" name="PREC">normal</i>
   <i name="ENMAX">    174.98200000</i>
   <i name="ENAUG">    368.79200000</i>
   <i name="EDIFF">      0.00010000</i>
   <i type="int" name="IALGO">    68</i>
   <i type="int" name="IWAVPR">    11</i>
   <i type="int" name="NBANDS">    64</i>
   <i name="NELECT">     90.00000000</i>
   <i type="int" name="TURBO">     0</i>
   <i type="int" name="IRESTART">     0</i>
   <i type="int" name="NREBOOT">     0</i>
   <i type="int" name="NMIN">     0</i>
   <i name="EREF">      0.00000000</i>
   <separator name="electronic smearing" >
    <i type="int" name="ISMEAR">     0</i>
    <i name="SIGMA">      0.00010000</i>
    <i name="KSPACING">      0.50000000</i>
    <i type="logical" name="KGAMMA"> T  </i>
   </separator>
   <separator name="electronic projectors" >
    <i type="logical" name="LREAL"> F  </i>
    <v name="ROPT">      0.00000000</v>
    <i type="int" name="LMAXPAW">  -100</i>
    <i type="int" name="LMAXMIX">     2</i>
    <i type="logical" name="NLSPLINE"> F  </i>
   </separator>
   <separator name="electronic startup" >
    <i type="int" name="ISTART">     0</i>
    <i type="int" name="ICHARG">     2</i>
    <i type="int" name="INIWAV">     1</i>
   </separator>
   <separator name="electronic spin" >
    <i type="int" name="ISPIN">     2</i>
    <i type="logical" name="LNONCOLLINEAR"> F  </i>
    <v name="MAGMOM">      1.00000000      1.00000000      1.00000000      1.00000000      1.00000000      1.00000000      1.00000000      1.00000000      1.00000000      1.00000000      1.00000000      1.00000000      1.00000000      1.00000000      1.00000000</v>
    <i name="NUPDOWN">     -1.00000000</i>
    <i type="logical" name="LSORBIT"> F  </i>
    <v name="SAXIS">      0.00000000      0.00000000      1.00000000</v>
    <i type="logical" name="LSPIRAL"> F  </i>
    <v name="QSPIRAL">      0.00000000      0.00000000      0.00000000</v>
    <i type="logical" name="LZEROZ"> F  </i>
   </separator>
   <separator name="electronic exchange-correlation" >
    <i type="logical" name="LASPH"> F  </i>
    <i type="logical" name="LMETAGGA"> F  </i>
   </separator>
   <separator name="electronic convergence" >
    <i type="int" name="NELM">    60</i>
    <i type="int" name="NELMDL">    -5</i>
    <i type="int" name="NELMIN">     2</i>
    <i name="ENINI">    174.98200000</i>
    <separator name="electronic convergence detail" >
     <i type="logical" name="LDIAG"> T  </i>
     <i type="logical" name="LSUBROT"> F  </i>
     <i name="WEIMIN">      0.00100000</i>
     <i name="EBREAK">      0.00000039</i>
     <i name="DEPER">      0.30000000</i>
     <i type="int" name="NRMM">     4</i>
     <i name="TIME">      0.40000000</i>
    </separator>
   </separator>
   <separator name="electronic mixer" >
    <i name="AMIX">      0.40000000</i>
    <i name="BMIX">      1.00000000</i>
    <i name="AMIN">      0.10000000</i>
    <i name="AMIX_MAG">      1.60000000</i>
    <i name="BMIX_MAG">      1.00000000</i>
    <separator name="electronic mixer details" >
     <i type="int" name="IMIX">     4</i>
     <i type="logical" name="MIXFIRST"> F  </i>
     <i type="int" name="MAXMIX">   -45</i>
     <i name="WC">    100.00000000</i>
     <i type="int" name="INIMIX">     1</i>
     <i type="int" name="MIXPRE">     1</i>
     <i type="int" name="MREMOVE">     5</i>
    </separator>
   </separator>
   <separator name="electronic dipolcorrection" >
    <i type="logical" name="LDIPOL"> F  </i>
    <i type="logical" name="LMONO"> F  </i>
    <i type="int" name="IDIPOL">     0</i>
    <i name="EPSILON">      1.00000000</i>
    <v name="DIPOL">   -100.00000000   -100.00000000   -100.00000000</v>
    <i name="EFIELD">      0.00000000</i>
   </separator>
  </separator>
  <separator name="grids" >
   <i type="int" name="NGX">    96</i>
   <i type="int" name="NGY">    96</i>
   <i type="int" name="NGZ">    96</i>
   <i type="int" name="NGXF">   192</i>
   <i type="int" name="NGYF">   192</i>
   <i type="int" name="NGZF">   192</i>
   <i type="logical" name="ADDGRID"> F  </i>
  </separator>
  <separator name="ionic" >
   <i type="int" name="NSW">   101</i>
   <i type="int" name="IBRION">     2</i>
   <i type="int" name="ISIF">     2</i>
   <i name="PSTRESS">      0.00000000</i>
   <i name="EDIFFG">      0.00100000</i>
   <i type="int" name="NFREE">     1</i>
   <i name="POTIM">      0.50000000</i>
   <i name="SMASS">     -3.00000000</i>
   <i name="SCALEE">      1.00000000</i>
  </separator>
  <separator name="ionic md" >
   <i name="TEBEG">      0.00010000</i>
   <i name="TEEND">      0.00010000</i>
   <i type="int" name="NBLOCK">     1</i>
   <i type="int" name="KBLOCK">   101</i>
   <i type="int" name="NPACO">   256</i>
   <i name="APACO">     16.00000000</i>
  </separator>
  <separator name="symmetry" >
   <i type="int" name="ISYM">     0</i>
   <i name="SYMPREC">      0.00001000</i>
  </separator>
  <separator name="dos" >
   <i type="logical" name="LORBIT"> F  </i>
   <v name="RWIGS">     -1.00000000</v>
   <i type="int" name="NEDOS">   301</i>
   <i name="EMIN">     10.00000000</i>
   <i name="EMAX">    -10.00000000</i>
   <i name="EFERMI">      0.00000000</i>
  </separator>
  <separator name="writing" >
   <i type="int" name="NWRITE">     2</i>
   <i type="logical" name="LWAVE"> F  </i>
   <i type="logical" name="LCHARG"> F  </i>
   <i type="logical" name="LPARD"> F  </i>
   <i type="logical" name="LVTOT"> F  </i>
   <i type="logical" name="LVHAR"> F  </i>
   <i type="logical" name="LELF"> F  </i>
   <i type="logical" name="LOPTICS"> F  </i>
   <v name="STM">      0.00000000      0.00000000      0.00000000      0.00000000      0.00000000      0.00000000      0.00000000</v>
  </separator>
  <separator name="performance" >
   <i type="int" name="NPAR">     4</i>
   <i type="int" name="NSIM">     4</i>
   <i type="int" name="NBLK">    -1</i>
   <i type="logical" name="LPLANE"> T  </i>
   <i type="logical" name="LSCALAPACK"> T  </i>
   <i type="logical" name="LSCAAWARE"> F  </i>
   <i type="logical" name="LSCALU"> F  </i>
   <i type="logical" name="LASYNC"> F  </i>
   <i type="logical" name="LORBITALREAL"> F  </i>
  </separator>
  <separator name="miscellaneous" >
   <i type="int" name="IDIOT">     3</i>
   <i type="logical" name="LMUSIC"> F  </i>
   <v name="POMASS">    127.60000000</v>
   <v name="DARWINR">      0.00000000</v>
   <v name="DARWINV">      1.00000000</v>
   <i type="logical" name="LCORR"> T  </i>
  </separator>
  <i type="logical" name="GGA_COMPAT"> T  </i>
  <i type="logical" name="LBERRY"> F  </i>
  <i type="int" name="ICORELEVEL">     0</i>
  <i type="logical" name="LDAU"> F  </i>
  <i type="int" name="I_CONSTRAINED_M">     0</i>
  <separator name="electronic exchange-correlation" >
   <i type="string" name="GGA">PE</i>
   <i type="int" name="VOSKOWN">     0</i>
   <i type="logical" name="LHFCALC"> F  </i>
   <i type="string" name="PRECFOCK"></i>
   <i type="logical" name="LSYMGRAD"> F  </i>
   <i type="logical" name="LHFONE"> F  </i>
   <i type="logical" name="LRHFCALC"> F  </i>
   <i type="logical" name="LTHOMAS"> F  </i>
   <i type="logical" name="LMODELHF"> F  </i>
   <i name="ENCUT4O">     -1.00000000</i>
   <i type="int" name="EXXOEP">     0</i>
   <i type="int" name="FOURORBIT">     0</i>
   <i name="AEXX">      0.00000000</i>
   <i name="HFALPHA">      0.00000000</i>
   <i name="MCALPHA">      0.00000000</i>
   <i name="ALDAX">      1.00000000</i>
   <i name="AGGAX">      1.00000000</i>
   <i name="ALDAC">      1.00000000</i>
   <i name="AGGAC">      1.00000000</i>
   <i type="int" name="NKREDX">     1</i>
   <i type="int" name="NKREDY">     1</i>
   <i type="int" name="NKREDZ">     1</i>
   <i type="logical" name="SHIFTRED"> F  </i>
   <i type="logical" name="ODDONLY"> F  </i>
   <i type="logical" name="EVENONLY"> F  </i>
   <i type="int" name="LMAXFOCK">     0</i>
   <i type="int" name="NMAXFOCKAE">     0</i>
   <i type="logical" name="LFOCKAEDFT"> F  </i>
   <i name="HFSCREEN">      0.00000000</i>
   <i name="HFSCREENC">      0.00000000</i>
   <i type="int" name="NBANDSGWLOW">     0</i>
  </separator>
  <separator name="vdW DFT" >
   <i type="logical" name="LUSE_VDW"> F  </i>
   <i name="Zab_VDW">     -0.84910000</i>
   <i name="PARAM1">      0.12340000</i>
   <i name="PARAM2">      1.00000000</i>
   <i name="PARAM3">      0.00000000</i>
  </separator>
  <separator name="model GW" >
   <i type="int" name="MODEL_GW">     0</i>
   <i name="MODEL_EPS0">    955.48693319</i>
   <i name="MODEL_ALPHA">      1.00000000</i>
  </separator>
  <separator name="linear response parameters" >
   <i type="logical" name="LEPSILON"> F  </i>
   <i type="logical" name="LRPA"> F  </i>
   <i type="logical" name="LNABLA"> F  </i>
   <i type="logical" name="LVEL"> F  </i>
   <i type="int" name="KINTER">     0</i>
   <i name="CSHIFT">      0.10000000</i>
   <i name="OMEGAMAX">     -1.00000000</i>
   <i name="DEG_THRESHOLD">      0.00200000</i>
  </separator>
  <separator name="orbital magnetization" >
   <i type="logical" name="NUCIND"> F  </i>
   <v name="MAGPOS">      0.00000000      0.00000000      0.00000000</v>
   <i type="logical" name="LNICSALL"> T  </i>
   <i type="logical" name="ORBITALMAG"> F  </i>
   <i type="logical" name="LMAGBLOCH"> F  </i>
   <i type="logical" name="LCHIMAG"> F  </i>
   <i type="logical" name="LGAUGE"> T  </i>
   <i type="int" name="MAGATOM">     0</i>
   <v name="MAGDIPOL">      0.00000000      0.00000000      0.00000000</v>
   <v name="AVECCONST">      0.00000000      0.00000000      0.00000000</v>
  </separator>
  <separator name="response functions" >
   <i type="logical" name="LADDER"> F  </i>
   <i type="logical" name="LFXC"> F  </i>
   <i type="logical" name="LHARTREE"> T  </i>
   <i type="int" name="IBSE">     0</i>
   <v type="int" name="KPOINT">    -1     0     0     0</v>
   <i type="logical" name="LTCTE"> F  </i>
   <i type="logical" name="LTETE"> F  </i>
   <i type="logical" name="LTRIPLET"> F  </i>
   <i type="logical" name="LFXCEPS"> F  </i>
   <i type="logical" name="LFXHEG"> F  </i>
   <i type="int" name="NATURALO">     0</i>
   <i type="logical" name="L2ORDER"> F  </i>
   <i type="logical" name="LUSEW"> F  </i>
   <i name="ENCUTGW">     -2.00000000</i>
   <i name="ENCUTGWSOFT">     -2.00000000</i>
   <i name="ENCUTLF">     -1.00000000</i>
   <i type="int" name="LMAXMP2">    -1</i>
   <i name="SCISSOR">      0.00000000</i>
   <i type="int" name="NOMEGA">     0</i>
   <i type="int" name="NOMEGAR">     0</i>
   <i type="int" name="NBANDSGW">    -1</i>
   <i type="int" name="NBANDSO">    -1</i>
   <i type="int" name="NBANDSV">    -1</i>
   <i type="int" name="NELM">     1</i>
   <i type="int" name="NELMHF">     1</i>
   <i type="int" name="DIM">     3</i>
   <i type="int" name="ANTIRES">     0</i>
   <i name="OMEGAMAX">    -30.00000000</i>
   <i name="OMEGAMIN">    -30.00000000</i>
   <i name="OMEGATL">   -200.00000000</i>
   <i type="int" name="OMEGAGRID">     0</i>
   <i name="CSHIFT">     -0.10000000</i>
   <i type="logical" name="SELFENERGY"> F  </i>
   <i type="logical" name="LSPECTRAL"> F  </i>
   <i type="logical" name="LSPECTRALGW"> F  </i>
   <i type="logical" name="LSINGLES"> F  </i>
   <i type="logical" name="LFERMIGW"> F  </i>
   <i type="logical" name="ODDONLYGW"> F  </i>
   <i type="logical" name="EVENONLYGW"> F  </i>
   <i type="int" name="NKREDLFX">     1</i>
   <i type="int" name="NKREDLFY">     1</i>
   <i type="int" name="NKREDLFZ">     1</i>
   <i type="int" name="MAXMEM">  1800</i>
   <i type="int" name="TELESCOPE">     0</i>
   <i type="int" name="TAUPAR">     1</i>
   <i type="int" name="OMEGAPAR">    -1</i>
   <i name="LAMBDA">      1.00000000</i>
  </separator>
  <separator name="External order field" >
   <i name="OFIELD_KAPPA">      0.00000000</i>
   <v name="OFIELD_K">      0.00000000      0.00000000      0.00000000</v>
   <i name="OFIELD_Q6_NEAR">      0.00000000</i>
   <i name="OFIELD_Q6_FAR">      0.00000000</i>
   <i name="OFIELD_A">      0.00000000</i>
  </separator>
  <separator name="solvation model" >
   <i type="logical" name="LSOL"> F  </i>
  </separator>
 </parameters>
 <atominfo>
  <atoms>      15 </atoms>
  <types>       1 </types>
  <array name="atoms" >
   <dimension dim="1">ion</dimension>
   <field type="string">element</field>
   <field type="int">atomtype</field>
   <set>
    <rc><c>Te</c><c>   1</c></rc>
    <rc><c>Te</c><c>   1</c></rc>
    <rc><c>Te</c><c>   1</c></rc>
    <rc><c>Te</c><c>   1</c></rc>
    <rc><c>Te</c><c>   1</c></rc>
    <rc><c>Te</c><c>   1</c></rc>
    <rc><c>Te</c><c>   1</c></rc>
    <rc><c>Te</c><c>   1</c></rc>
    <rc><c>Te</c><c>   1</c></rc>
    <rc><c>Te</c><c>   1</c></rc>
    <rc><c>Te</c><c>   1</c></rc>
    <rc><c>Te</c><c>   1</c></rc>
    <rc><c>Te</c><c>   1</c></rc>
    <rc><c>Te</c><c>   1</c></rc>
    <rc><c>Te</c><c>   1</c></rc>
   </set>
  </array>
  <array name="atomtypes" >
   <dimension dim="1">type</dimension>
   <field type="int">atomspertype</field>
   <field type="string">element</field>
   <field>mass</field>
   <field>valence</field>
   <field type="string">pseudopotential</field>
   <set>
    <rc><c>  15</c><c>Te</c><c>    127.60000000</c><c>      6.00000000</c><c> PAW_PBE Te 08Apr2002                   </c></rc>
   </set>
  </array>
 </atominfo>
 <structure name="initialpos" >
  <crystal>
   <varray name="basis" >
    <v>      28.79971922       0.00000000       0.00000000 </v>
    <v>       0.00000000      28.79971922       0.00000000 </v>
    <v>       0.00000000       0.00000000      28.79971922 </v>
   </varray>
   <i name="volume">  23887.17332963 </i>
   <varray name="rec_basis" >
    <v>       0.03472256       0.00000000       0.00000000 </v>
    <v>       0.00000000       0.03472256       0.00000000 </v>
    <v>       0.00000000       0.00000000       0.03472256 </v>
   </varray>
  </crystal>
  <varray name="positions" >
   <v>       0.57103143       0.53345800       0.35551167 </v>
   <v>       0.65191724       0.57978031       0.37901551 </v>
   <v>       0.51147145       0.59280300       0.39943325 </v>
   <v>       0.71969462       0.52386650       0.41467963 </v>
   <v>       0.46281806       0.55298824       0.47318609 </v>
   <v>       0.23350548       0.30320352       0.54363739 </v>
   <v>       0.32639159       0.32789688       0.53024201 </v>
   <v>       0.30850802       0.42147563       0.54064237 </v>
   <v>       0.70881017       0.50644300       0.50777665 </v>
   <v>       0.19527370       0.38405186       0.56210965 </v>
   <v>       0.38639392       0.46169332       0.51030607 </v>
   <v>       0.71034384       0.59263205       0.54992314 </v>
   <v>       0.52155246       0.52739717       0.54248991 </v>
   <v>       0.63829398       0.58138638       0.61140466 </v>
   <v>       0.55399404       0.61092414       0.57964201 </v>
  </varray>
 </structure>
 <calculation>
  <scstep>
   <time name="dav">    1.11    1.12</time>
   <time name="total">    1.48    1.50</time>
   <energy>
    <i name="alphaZ">      0.24464242 </i>
    <i name="ewald">   3746.65680042 </i>
    <i name="hartreedc">  -6394.75865846 </i>
    <i name="XCdc">   -425.75119801 </i>
    <i name="pawpsdc">   1551.17542349 </i>
    <i name="pawaedc">   -973.78691652 </i>
    <i name="eentropy">      0.00000000 </i>
    <i name="bandstr">   -382.20471457 </i>
    <i name="atom">   3348.88108275 </i>
    <i name="e_fr_energy">    470.45646154 </i>
    <i name="e_wo_entrp">    470.45646154 </i>
    <i name="e_0_energy">    470.45646154 </i>
   </energy>
  </scstep>
  <scstep>
   <time name="dav">    1.32    1.32</time>
   <time name="total">    1.32    1.34</time>
   <energy>
    <i name="e_fr_energy">    126.50197959 </i>
    <i name="e_wo_entrp">    126.50197959 </i>
    <i name="e_0_energy">    126.50197959 </i>
   </energy>
  </scstep>
  <scstep>
   <time name="dav">    1.12    1.12</time>
   <time name="total">    1.12    1.14</time>
   <energy>
    <i name="e_fr_energy">    -25.33988452 </i>
    <i name="e_wo_entrp">    -25.33988452 </i>
    <i name="e_0_energy">    -25.33988452 </i>
   </energy>
  </scstep>
  <scstep>
   <time name="dav">    1.08    1.09</time>
   <time name="total">    1.09    1.10</time>
   <energy>
    <i name="e_fr_energy">    -41.42255626 </i>
    <i name="e_wo_entrp">    -41.42255626 </i>
    <i name="e_0_energy">    -41.42255626 </i>
   </energy>
  </scstep>
  <scstep>
   <time name="dav">    0.96    0.97</time>
   <time name="total">    1.06    1.07</time>
   <energy>
    <i name="e_fr_energy">    -41.69896674 </i>
    <i name="e_wo_entrp">    -41.69896674 </i>
    <i name="e_0_energy">    -41.69896674 </i>
   </energy>
  </scstep>
  <scstep>
   <time name="diag">    0.18    0.18</time>
   <time name="diis">    0.84    0.84</time>
   <time name="orth">    0.01    0.01</time>
   <time name="total">    1.46    1.47</time>
   <energy>
    <i name="e_fr_energy">    -18.70738032 </i>
    <i name="e_wo_entrp">    -18.70738032 </i>
    <i name="e_0_energy">    -18.70738032 </i>
   </energy>
  </scstep>
  <scstep>
   <time name="diag">    0.18    0.18</time>
   <time name="diis">    0.83    0.83</time>
   <time name="orth">    0.01    0.01</time>
   <time name="total">    1.45    1.46</time>
   <energy>
    <i name="e_fr_energy">    -20.12560617 </i>
    <i name="e_wo_entrp">    -20.12560617 </i>
    <i name="e_0_energy">    -20.12560617 </i>
   </energy>
  </scstep>
  <scstep>
   <time name="diag">    0.18    0.18</time>
   <time name="diis">    0.84    0.84</time>
   <time name="orth">    0.02    0.01</time>
   <time name="total">    1.46    1.47</time>
   <energy>
    <i name="e_fr_energy">    -27.11212905 </i>
    <i name="e_wo_entrp">    -27.11212905 </i>
    <i name="e_0_energy">    -27.11212905 </i>
   </energy>
  </scstep>
  <scstep>
   <time name="diag">    0.18    0.18</time>
   <time name="diis">    0.84    0.84</time>
   <time name="orth">    0.02    0.01</time>
   <time name="total">    1.46    1.48</time>
   <energy>
    <i name="e_fr_energy">    -31.87507711 </i>
    <i name="e_wo_entrp">    -31.87507711 </i>
    <i name="e_0_energy">    -31.87507711 </i>
   </energy>
  </scstep>
  <scstep>
   <time name="diag">    0.18    0.18</time>
   <time name="diis">    0.84    0.84</time>
   <time name="orth">    0.01    0.01</time>
   <time name="total">    1.46    1.49</time>
   <energy>
    <i name="e_fr_energy">    -35.48870426 </i>
    <i name="e_wo_entrp">    -35.48870426 </i>
    <i name="e_0_energy">    -35.48870426 </i>
   </energy>
  </scstep>
  <scstep>
   <time name="diag">    0.18    0.18</time>
   <time name="diis">    0.84    0.84</time>
   <time name="orth">    0.01    0.01</time>
   <time name="total">    1.46    1.52</time>
   <energy>
    <i name="e_fr_energy">    -38.85051000 </i>
    <i name="e_wo_entrp">    -38.85051000 </i>
    <i name="e_0_energy">    -38.85051000 </i>
   </energy>
  </scstep>
  <scstep>
   <time name="diag">    0.18    0.18</time>
   <time name="diis">    0.84    0.84</time>
   <time name="orth">    0.01    0.01</time>
   <time name="total">    1.46    1.52</time>
   <energy>
    <i name="e_fr_energy">    -40.77252370 </i>
    <i name="e_wo_entrp">    -40.77252370 </i>
    <i name="e_0_energy">    -40.77252370 </i>
   </energy>
  </scstep>
  <scstep>
   <time name="diag">    0.18    0.18</time>
   <time name="diis">    0.83    0.83</time>
   <time name="orth">    0.02    0.01</time>
   <time name="total">    1.46    1.47</time>
   <energy>
    <i name="e_fr_energy">    -41.30433439 </i>
    <i name="e_wo_entrp">    -41.30433439 </i>
    <i name="e_0_energy">    -41.30433439 </i>
   </energy>
  </scstep>
  <scstep>
   <time name="diag">    0.18    0.18</time>
   <time name="diis">    0.84    0.84</time>
   <time name="orth">    0.02    0.01</time>
   <time name="total">    1.47    1.49</time>
   <energy>
    <i name="e_fr_energy">    -41.86642957 </i>
    <i name="e_wo_entrp">    -41.86642957 </i>
    <i name="e_0_energy">    -41.86642957 </i>
   </energy>
  </scstep>
  <scstep>
   <time name="diag">    0.18    0.18</time>
   <time name="diis">    0.71    0.71</time>
   <time name="orth">    0.02    0.01</time>
   <time name="total">    1.34    1.36</time>
   <energy>
    <i name="e_fr_energy">    -41.83073201 </i>
    <i name="e_wo_entrp">    -41.83069838 </i>
    <i name="e_0_energy">    -41.83071519 </i>
   </energy>
  </scstep>
  <scstep>
   <time name="diag">    0.18    0.18</time>
   <time name="diis">    0.84    0.84</time>
   <time name="orth">    0.02    0.01</time>
   <time name="total">    1.47    1.48</time>
   <energy>
    <i name="e_fr_energy">    -42.12086456 </i>
    <i name="e_wo_entrp">    -42.12086456 </i>
    <i name="e_0_energy">    -42.12086456 </i>
   </energy>
  </scstep>
  <scstep>
   <time name="diag">    0.18    0.18</time>
   <time name="diis">    0.74    0.74</time>
   <time name="orth">    0.01    0.01</time>
   <time name="total">    1.37    1.39</time>
   <energy>
    <i name="e_fr_energy">    -42.37222244 </i>
    <i name="e_wo_entrp">    -42.37222244 </i>
    <i name="e_0_energy">    -42.37222244 </i>
   </energy>
  </scstep>
  <scstep>
   <time name="diag">    0.18    0.18</time>
   <time name="diis">    0.73    0.73</time>
   <time name="orth">    0.02    0.01</time>
   <time name="total">    1.36    1.37</time>
   <energy>
    <i name="e_fr_energy">    -42.60573767 </i>
    <i name="e_wo_entrp">    -42.60573767 </i>
    <i name="e_0_energy">    -42.60573767 </i>
   </energy>
  </scstep>
  <scstep>
   <time name="diag">    0.18    0.18</time>
   <time name="diis">    0.73    0.73</time>
   <time name="orth">    0.01    0.01</time>
   <time name="total">    1.36    1.38</time>
   <energy>
    <i name="e_fr_energy">    -42.76893790 </i>
    <i name="e_wo_entrp">    -42.76893790 </i>
    <i name="e_0_energy">    -42.76893790 </i>
   </energy>
  </scstep>
  <scstep>
   <time name="diag">    0.18    0.18</time>
   <time name="diis">    0.70    0.70</time>
   <time name="orth">    0.02    0.01</time>
   <time name="total">    1.33    1.35</time>
   <energy>
    <i name="e_fr_energy">    -42.83631018 </i>
    <i name="e_wo_entrp">    -42.83631018 </i>
    <i name="e_0_energy">    -42.83631018 </i>
   </energy>
  </scstep>
  <scstep>
   <time name="diag">    0.18    0.18</time>
   <time name="diis">    0.70    0.70</time>
   <time name="orth">    0.01    0.01</time>
   <time name="total">    1.33    1.34</time>
   <energy>
    <i name="e_fr_energy">    -42.87387367 </i>
    <i name="e_wo_entrp">    -42.87387367 </i>
    <i name="e_0_energy">    -42.87387367 </i>
   </energy>
  </scstep>
  <scstep>
   <time name="diag">    0.18    0.18</time>
   <time name="diis">    0.65    0.65</time>
   <time name="orth">    0.02    0.01</time>
   <time name="total">    1.28    1.33</time>
   <energy>
    <i name="e_fr_energy">    -42.88832937 </i>
    <i name="e_wo_entrp">    -42.88832937 </i>
    <i name="e_0_energy">    -42.88832937 </i>
   </energy>
  </scstep>
  <scstep>
   <time name="diag">    0.18    0.18</time>
   <time name="diis">    0.60    0.61</time>
   <time name="orth">    0.02    0.01</time>
   <time name="total">    1.24    1.25</time>
   <energy>
    <i name="e_fr_energy">    -42.89143154 </i>
    <i name="e_wo_entrp">    -42.89143154 </i>
    <i name="e_0_energy">    -42.89143154 </i>
   </energy>
  </scstep>
  <scstep>
   <time name="diag">    0.18    0.18</time>
   <time name="diis">    0.50    0.50</time>
   <time name="orth">    0.01    0.01</time>
   <time name="total">    1.14    1.15</time>
   <energy>
    <i name="e_fr_energy">    -42.89074235 </i>
    <i name="e_wo_entrp">    -42.89074235 </i>
    <i name="e_0_energy">    -42.89074235 </i>
   </energy>
  </scstep>
  <scstep>
   <time name="diag">    0.18    0.18</time>
   <time name="diis">    0.44    0.44</time>
   <time name="orth">    0.01    0.01</time>
   <time name="total">    1.07    1.09</time>
   <energy>
    <i name="e_fr_energy">    -42.89261337 </i>
    <i name="e_wo_entrp">    -42.89261337 </i>
    <i name="e_0_energy">    -42.89261337 </i>
   </energy>
  </scstep>
  <scstep>
   <time name="diag">    0.18    0.18</time>
   <time name="diis">    0.51    0.51</time>
   <time name="orth">    0.02    0.01</time>
   <time name="total">    1.14    1.16</time>
   <energy>
    <i name="e_fr_energy">    -42.89571132 </i>
    <i name="e_wo_entrp">    -42.89571132 </i>
    <i name="e_0_energy">    -42.89571132 </i>
   </energy>
  </scstep>
  <scstep>
   <time name="diag">    0.18    0.18</time>
   <time name="diis">    0.67    0.67</time>
   <time name="orth">    0.01    0.01</time>
   <time name="total">    1.30    1.32</time>
   <energy>
    <i name="e_fr_energy">    -42.90921712 </i>
    <i name="e_wo_entrp">    -42.90921712 </i>
    <i name="e_0_energy">    -42.90921712 </i>
   </energy>
  </scstep>
  <scstep>
   <time name="diag">    0.18    0.18</time>
   <time name="diis">    0.68    0.69</time>
   <time name="orth">    0.02    0.01</time>
   <time name="total">    1.32    1.34</time>
   <energy>
    <i name="e_fr_energy">    -42.92539647 </i>
    <i name="e_wo_entrp">    -42.92539647 </i>
    <i name="e_0_energy">    -42.92539647 </i>
   </energy>
  </scstep>
  <scstep>
   <time name="diag">    0.18    0.18</time>
   <time name="diis">    0.67    0.67</time>
   <time name="orth">    0.02    0.01</time>
   <time name="total">    1.30    1.37</time>
   <energy>
    <i name="e_fr_energy">    -42.93948122 </i>
    <i name="e_wo_entrp">    -42.93948122 </i>
    <i name="e_0_energy">    -42.93948122 </i>
   </energy>
  </scstep>
  <scstep>
   <time name="diag">    0.18    0.18</time>
   <time name="diis">    0.68    0.68</time>
   <time name="orth">    0.01    0.01</time>
   <time name="total">    1.32    1.33</time>
   <energy>
    <i name="e_fr_energy">    -42.94928924 </i>
    <i name="e_wo_entrp">    -42.94926951 </i>
    <i name="e_0_energy">    -42.94927938 </i>
   </energy>
  </scstep>
  <scstep>
   <time name="diag">    0.18    0.18</time>
   <time name="diis">    0.65    0.65</time>
   <time name="orth">    0.02    0.01</time>
   <time name="total">    1.30    1.37</time>
   <energy>
    <i name="e_fr_energy">    -42.96716499 </i>
    <i name="e_wo_entrp">    -42.96716499 </i>
    <i name="e_0_energy">    -42.96716499 </i>
   </energy>
  </scstep>
  <scstep>
   <time name="diag">    0.18    0.18</time>
   <time name="diis">    0.69    0.69</time>
   <time name="orth">    0.02    0.01</time>
   <time name="total">    1.34    1.39</time>
   <energy>
    <i name="e_fr_energy">    -42.96128186 </i>
    <i name="e_wo_entrp">    -42.96128186 </i>
    <i name="e_0_energy">    -42.96128186 </i>
   </energy>
  </scstep>
  <scstep>
   <time name="diag">    0.18    0.18</time>
   <time name="diis">    0.55    0.55</time>
   <time name="orth">    0.01    0.01</time>
   <time name="total">    1.20    1.21</time>
   <energy>
    <i name="e_fr_energy">    -42.95316314 </i>
    <i name="e_wo_entrp">    -42.95316314 </i>
    <i name="e_0_energy">    -42.95316314 </i>
   </energy>
  </scstep>
  <scstep>
   <time name="diag">    0.18    0.18</time>
   <time name="diis">    0.47    0.47</time>
   <time name="orth">    0.01    0.01</time>
   <time name="total">    1.12    1.15</time>
   <energy>
    <i name="e_fr_energy">    -42.95517326 </i>
    <i name="e_wo_entrp">    -42.95517326 </i>
    <i name="e_0_energy">    -42.95517326 </i>
   </energy>
  </scstep>
  <scstep>
   <time name="diag">    0.18    0.18</time>
   <time name="diis">    0.44    0.44</time>
   <time name="orth">    0.02    0.01</time>
   <time name="total">    1.09    1.11</time>
   <energy>
    <i name="e_fr_energy">    -42.96006615 </i>
    <i name="e_wo_entrp">    -42.96006615 </i>
    <i name="e_0_energy">    -42.96006615 </i>
   </energy>
  </scstep>
  <scstep>
   <time name="diag">    0.18    0.18</time>
   <time name="diis">    0.63    0.63</time>
   <time name="orth">    0.01    0.01</time>
   <time name="total">    1.29    1.31</time>
   <energy>
    <i name="e_fr_energy">    -42.98210649 </i>
    <i name="e_wo_entrp">    -42.98210649 </i>
    <i name="e_0_energy">    -42.98210649 </i>
   </energy>
  </scstep>
  <scstep>
   <time name="diag">    0.18    0.18</time>
   <time name="diis">    0.61    0.61</time>
   <time name="orth">    0.02    0.01</time>
   <time name="total">    1.27    1.29</time>
   <energy>
    <i name="e_fr_energy">    -42.99822690 </i>
    <i name="e_wo_entrp">    -42.99822690 </i>
    <i name="e_0_energy">    -42.99822690 </i>
   </energy>
  </scstep>
  <scstep>
   <time name="diag">    0.18    0.18</time>
   <time name="diis">    0.60    0.60</time>
   <time name="orth">    0.01    0.01</time>
   <time name="total">    1.26    1.29</time>
   <energy>
    <i name="e_fr_energy">    -43.01118284 </i>
    <i name="e_wo_entrp">    -43.01118284 </i>
    <i name="e_0_energy">    -43.01118284 </i>
   </energy>
  </scstep>
  <scstep>
   <time name="diag">    0.18    0.18</time>
   <time name="diis">    0.69    0.69</time>
   <time name="orth">    0.02    0.01</time>
   <time name="total">    1.35    1.39</time>
   <energy>
    <i name="e_fr_energy">    -43.04738661 </i>
    <i name="e_wo_entrp">    -43.04738661 </i>
    <i name="e_0_energy">    -43.04738661 </i>
   </energy>
  </scstep>
  <scstep>
   <time name="diag">    0.18    0.18</time>
   <time name="diis">    0.65    0.65</time>
   <time name="orth">    0.01    0.01</time>
   <time name="total">    1.31    1.32</time>
   <energy>
    <i name="e_fr_energy">    -43.06748674 </i>
    <i name="e_wo_entrp">    -43.06748674 </i>
    <i name="e_0_energy">    -43.06748674 </i>
   </energy>
  </scstep>
  <scstep>
   <time name="diag">    0.18    0.18</time>
   <time name="diis">    0.70    0.70</time>
   <time name="orth">    0.01    0.01</time>
   <time name="total">    1.36    1.38</time>
   <energy>
    <i name="e_fr_energy">    -43.09248212 </i>
    <i name="e_wo_entrp">    -43.09248212 </i>
    <i name="e_0_energy">    -43.09248212 </i>
   </energy>
  </scstep>
  <scstep>
   <time name="diag">    0.18    0.18</time>
   <time name="diis">    0.69    0.69</time>
   <time name="orth">    0.01    0.01</time>
   <time name="total">    1.36    1.37</time>
   <energy>
    <i name="e_fr_energy">    -43.11588496 </i>
    <i name="e_wo_entrp">    -43.11588496 </i>
    <i name="e_0_energy">    -43.11588496 </i>
   </energy>
  </scstep>
  <scstep>
   <time name="diag">    0.18    0.18</time>
   <time name="diis">    0.60    0.60</time>
   <time name="orth">    0.01    0.01</time>
   <time name="total">    1.26    1.29</time>
   <energy>
    <i name="e_fr_energy">    -43.12238038 </i>
    <i name="e_wo_entrp">    -43.12238038 </i>
    <i name="e_0_energy">    -43.12238038 </i>
   </energy>
  </scstep>
  <scstep>
   <time name="diag">    0.18    0.18</time>
   <time name="diis">    0.61    0.61</time>
   <time name="orth">    0.01    0.01</time>
   <time name="total">    1.27    1.29</time>
   <energy>
    <i name="e_fr_energy">    -43.13115909 </i>
    <i name="e_wo_entrp">    -43.13115909 </i>
    <i name="e_0_energy">    -43.13115909 </i>
   </energy>
  </scstep>
  <scstep>
   <time name="diag">    0.18    0.18</time>
   <time name="diis">    0.64    0.64</time>
   <time name="orth">    0.02    0.01</time>
   <time name="total">    1.31    1.32</time>
   <energy>
    <i name="e_fr_energy">    -43.14134058 </i>
    <i name="e_wo_entrp">    -43.14134058 </i>
    <i name="e_0_energy">    -43.14134058 </i>
   </energy>
  </scstep>
  <scstep>
   <time name="diag">    0.18    0.18</time>
   <time name="diis">    0.64    0.64</time>
   <time name="orth">    0.01    0.01</time>
   <time name="total">    1.31    1.33</time>
   <energy>
    <i name="e_fr_energy">    -43.15255992 </i>
    <i name="e_wo_entrp">    -43.15255992 </i>
    <i name="e_0_energy">    -43.15255992 </i>
   </energy>
  </scstep>
  <scstep>
   <time name="diag">    0.18    0.18</time>
   <time name="diis">    0.70    0.70</time>
   <time name="orth">    0.01    0.01</time>
   <time name="total">    1.37    1.39</time>
   <energy>
    <i name="e_fr_energy">    -43.16592293 </i>
    <i name="e_wo_entrp">    -43.16592293 </i>
    <i name="e_0_energy">    -43.16592293 </i>
   </energy>
  </scstep>
  <scstep>
   <time name="diag">    0.18    0.18</time>
   <time name="diis">    0.64    0.65</time>
   <time name="orth">    0.02    0.01</time>
   <time name="total">    1.32    1.38</time>
   <energy>
    <i name="e_fr_energy">    -43.17622932 </i>
    <i name="e_wo_entrp">    -43.17622932 </i>
    <i name="e_0_energy">    -43.17622932 </i>
   </energy>
  </scstep>
  <scstep>
   <time name="diag">    0.18    0.18</time>
   <time name="diis">    0.73    0.73</time>
   <time name="orth">    0.01    0.01</time>
   <time name="total">    1.40    1.47</time>
   <energy>
    <i name="e_fr_energy">    -43.19827683 </i>
    <i name="e_wo_entrp">    -43.19827683 </i>
    <i name="e_0_energy">    -43.19827683 </i>
   </energy>
  </scstep>
  <scstep>
   <time name="diag">    0.18    0.18</time>
   <time name="diis">    0.58    0.58</time>
   <time name="orth">    0.02    0.01</time>
   <time name="total">    1.26    1.28</time>
   <energy>
    <i name="e_fr_energy">    -43.20024397 </i>
    <i name="e_wo_entrp">    -43.20024397 </i>
    <i name="e_0_energy">    -43.20024397 </i>
   </energy>
  </scstep>
  <scstep>
   <time name="diag">    0.18    0.18</time>
   <time name="diis">    0.69    0.69</time>
   <time name="orth">    0.01    0.01</time>
   <time name="total">    1.36    1.37</time>
   <energy>
    <i name="e_fr_energy">    -43.20694286 </i>
    <i name="e_wo_entrp">    -43.20694286 </i>
    <i name="e_0_energy">    -43.20694286 </i>
   </energy>
  </scstep>
  <scstep>
   <time name="diag">    0.18    0.18</time>
   <time name="diis">    0.64    0.64</time>
   <time name="orth">    0.01    0.01</time>
   <time name="total">    1.30    1.32</time>
   <energy>
    <i name="e_fr_energy">    -43.20924888 </i>
    <i name="e_wo_entrp">    -43.20924888 </i>
    <i name="e_0_energy">    -43.20924888 </i>
   </energy>
  </scstep>
  <scstep>
   <time name="diag">    0.18    0.18</time>
   <time name="diis">    0.61    0.61</time>
   <time name="orth">    0.01    0.01</time>
   <time name="total">    1.28    1.30</time>
   <energy>
    <i name="e_fr_energy">    -43.21007039 </i>
    <i name="e_wo_entrp">    -43.21007039 </i>
    <i name="e_0_energy">    -43.21007039 </i>
   </energy>
  </scstep>
  <scstep>
   <time name="diag">    0.18    0.18</time>
   <time name="diis">    0.47    0.47</time>
   <time name="orth">    0.02    0.01</time>
   <time name="total">    1.14    1.17</time>
   <energy>
    <i name="e_fr_energy">    -43.21044807 </i>
    <i name="e_wo_entrp">    -43.21044807 </i>
    <i name="e_0_energy">    -43.21044807 </i>
   </energy>
  </scstep>
  <scstep>
   <time name="diag">    0.18    0.18</time>
   <time name="diis">    0.41    0.41</time>
   <time name="orth">    0.02    0.01</time>
   <time name="total">    1.09    1.11</time>
   <energy>
    <i name="e_fr_energy">    -43.21085701 </i>
    <i name="e_wo_entrp">    -43.21085701 </i>
    <i name="e_0_energy">    -43.21085701 </i>
   </energy>
  </scstep>
  <scstep>
   <time name="diag">    0.18    0.18</time>
   <time name="diis">    0.38    0.37</time>
   <time name="orth">    0.01    0.01</time>
   <time name="total">    1.04    1.06</time>
   <energy>
    <i name="e_fr_energy">    -43.21120445 </i>
    <i name="e_wo_entrp">    -43.21120445 </i>
    <i name="e_0_energy">    -43.21120445 </i>
   </energy>
  </scstep>
  <scstep>
   <time name="diag">    0.18    0.18</time>
   <time name="diis">    0.35    0.35</time>
   <time name="orth">    0.01    0.01</time>
   <time name="total">    1.02    1.03</time>
   <energy>
    <i name="e_fr_energy">    -43.21136027 </i>
    <i name="e_wo_entrp">    -43.21136027 </i>
    <i name="e_0_energy">    -43.21136027 </i>
   </energy>
  </scstep>
  <scstep>
   <time name="diag">    0.18    0.18</time>
   <time name="diis">    0.37    0.37</time>
   <time name="orth">    0.01    0.01</time>
   <time name="total">    1.04    1.10</time>
   <energy>
    <i name="e_fr_energy">    -43.21147383 </i>
    <i name="e_wo_entrp">    -43.21147383 </i>
    <i name="e_0_energy">    -43.21147383 </i>
   </energy>
  </scstep>
  <scstep>
   <time name="diag">    0.18    0.18</time>
   <time name="diis">    0.34    0.34</time>
   <time name="orth">    0.01    0.01</time>
   <time name="total">    0.88    0.90</time>
   <energy>
    <i name="alphaZ">      0.24464242 </i>
    <i name="ewald">   3746.65680042 </i>
    <i name="hartreedc">  -6423.29997827 </i>
    <i name="XCdc">   -424.67196128 </i>
    <i name="pawpsdc">   1631.95357780 </i>
    <i name="pawaedc">  -1055.48019792 </i>
    <i name="eentropy">     -0.00000000 </i>
    <i name="bandstr">   -867.49551821 </i>
    <i name="atom">   3348.88108275 </i>
    <i name="e_fr_energy">    -43.21155228 </i>
    <i name="e_wo_entrp">    -43.21155228 </i>
    <i name="e_0_energy">    -43.21155228 </i>
   </energy>
  </scstep>
  <structure>
   <crystal>
    <varray name="basis" >
     <v>      28.79971922       0.00000000       0.00000000 </v>
     <v>       0.00000000      28.79971922       0.00000000 </v>
     <v>       0.00000000       0.00000000      28.79971922 </v>
    </varray>
    <i name="volume">  23887.17332963 </i>
    <varray name="rec_basis" >
     <v>       0.03472256       0.00000000       0.00000000 </v>
     <v>       0.00000000       0.03472256       0.00000000 </v>
     <v>       0.00000000       0.00000000       0.03472256 </v>
    </varray>
   </crystal>
   <varray name="positions" >
    <v>       0.57103143       0.53345800       0.35551167 </v>
    <v>       0.65191724       0.57978031       0.37901551 </v>
    <v>       0.51147145       0.59280300       0.39943325 </v>
    <v>       0.71969462       0.52386650       0.41467963 </v>
    <v>       0.46281806       0.55298824       0.47318609 </v>
    <v>       0.23350548       0.30320352       0.54363739 </v>
    <v>       0.32639159       0.32789688       0.53024201 </v>
    <v>       0.30850802       0.42147563       0.54064237 </v>
    <v>       0.70881017       0.50644300       0.50777665 </v>
    <v>       0.19527370       0.38405186       0.56210965 </v>
    <v>       0.38639392       0.46169332       0.51030607 </v>
    <v>       0.71034384       0.59263205       0.54992314 </v>
    <v>       0.52155246       0.52739717       0.54248991 </v>
    <v>       0.63829398       0.58138638       0.61140466 </v>
    <v>       0.55399404       0.61092414       0.57964201 </v>
   </varray>
  </structure>
  <varray name="forces" >
   <v>      -0.02416463       0.00597188      -0.00256431 </v>
   <v>      -0.00011857       0.00667064      -0.00972857 </v>
   <v>      -0.01853466      -0.01240763       0.01869127 </v>
   <v>      -0.00691978      -0.00340486      -0.00565028 </v>
   <v>       0.01148756      -0.01752242      -0.01937871 </v>
   <v>       0.00467487      -0.05864737       0.01004273 </v>
   <v>      -0.01104529       0.01495572      -0.00373848 </v>
   <v>       0.03431000       0.02234522      -0.02336635 </v>
   <v>      -0.01839215      -0.00942280       0.01322455 </v>
   <v>       0.00730660       0.04936252       0.00015638 </v>
   <v>       0.04126466      -0.00519565      -0.00578287 </v>
   <v>      -0.00666802      -0.00173819       0.00209685 </v>
   <v>      -0.01006133       0.00943478       0.02055995 </v>
   <v>      -0.00151065       0.00118979       0.00686305 </v>
   <v>      -0.00162862      -0.00159163      -0.00142522 </v>
  </varray>
  <varray name="stress" >
   <v>      -0.09178107      -0.01461060       0.01177233 </v>
   <v>      -0.01461060      -0.05212257       0.00433822 </v>
   <v>       0.01177233       0.00433822      -0.05110870 </v>
  </varray>
  <energy>
   <i name="e_fr_energy">    -43.21155228 </i>
   <i name="e_wo_entrp">    -43.21155228 </i>
   <i name="e_0_energy">     -0.00000000 </i>
  </energy>
  <time name="totalsc">   77.50   79.01</time>
 </calculation>
 <calculation>
  <scstep>
   <time name="dav">    0.99    0.99</time>
   <time name="total">    1.43    1.43</time>
   <energy>
    <i name="alphaZ">      0.24464242 </i>
    <i name="ewald">   3746.45205592 </i>
    <i name="hartreedc">  -6423.14021216 </i>
    <i name="XCdc">   -424.67816946 </i>
    <i name="pawpsdc">   1631.95448950 </i>
    <i name="pawaedc">  -1055.48112203 </i>
    <i name="eentropy">      0.00000000 </i>
    <i name="bandstr">   -867.44485038 </i>
    <i name="atom">   3348.88108275 </i>
    <i name="e_fr_energy">    -43.21208344 </i>
    <i name="e_wo_entrp">    -43.21208344 </i>
    <i name="e_0_energy">    -43.21208344 </i>
   </energy>
  </scstep>
  <scstep>
   <time name="diag">    0.18    0.18</time>
   <time name="diis">    0.68    0.67</time>
   <time name="orth">    0.01    0.01</time>
   <time name="total">    1.21    1.24</time>
   <energy>
    <i name="alphaZ">      0.24464242 </i>
    <i name="ewald">   3746.45205592 </i>
    <i name="hartreedc">  -6423.11397204 </i>
    <i name="XCdc">   -424.67780758 </i>
    <i name="pawpsdc">   1631.89941635 </i>
    <i name="pawaedc">  -1055.42522679 </i>
    <i name="eentropy">      0.00000000 </i>
    <i name="bandstr">   -867.47233879 </i>
    <i name="atom">   3348.88108275 </i>
    <i name="e_fr_energy">    -43.21214776 </i>
    <i name="e_wo_entrp">    -43.21214776 </i>
    <i name="e_0_energy">    -43.21214776 </i>
   </energy>
  </scstep>
  <structure>
   <crystal>
    <varray name="basis" >
     <v>      28.79971922       0.00000000       0.00000000 </v>
     <v>       0.00000000      28.79971922       0.00000000 </v>
     <v>       0.00000000       0.00000000      28.79971922 </v>
    </varray>
    <i name="volume">  23887.17332963 </i>
    <varray name="rec_basis" >
     <v>       0.03472256       0.00000000       0.00000000 </v>
     <v>       0.00000000       0.03472256       0.00000000 </v>
     <v>       0.00000000       0.00000000       0.03472256 </v>
    </varray>
   </crystal>
   <varray name="positions" >
    <v>       0.57099095       0.53346801       0.35550737 </v>
    <v>       0.65191704       0.57979149       0.37899921 </v>
    <v>       0.51144040       0.59278221       0.39946456 </v>
    <v>       0.71968303       0.52386080       0.41467016 </v>
    <v>       0.46283730       0.55295889       0.47315363 </v>
    <v>       0.23351331       0.30310528       0.54365421 </v>
    <v>       0.32637309       0.32792193       0.53023574 </v>
    <v>       0.30856549       0.42151306       0.54060323 </v>
    <v>       0.70877937       0.50642721       0.50779881 </v>
    <v>       0.19528594       0.38413455       0.56210991 </v>
    <v>       0.38646305       0.46168461       0.51029638 </v>
    <v>       0.71033267       0.59262914       0.54992665 </v>
    <v>       0.52153561       0.52741297       0.54252435 </v>
    <v>       0.63829145       0.58138838       0.61141616 </v>
    <v>       0.55399131       0.61092148       0.57963962 </v>
   </varray>
  </structure>
  <varray name="forces" >
   <v>      -0.01506791       0.00535887      -0.00328935 </v>
   <v>      -0.00331114       0.00150917      -0.00882756 </v>
   <v>      -0.01315757      -0.00440592       0.01095216 </v>
   <v>      -0.00955685      -0.00330020       0.00036370 </v>
   <v>       0.00536046      -0.01969008      -0.01015011 </v>
   <v>      -0.00869393      -0.00110747       0.01878568 </v>
   <v>      -0.01391685       0.00810739      -0.00358888 </v>
   <v>       0.01834133       0.01731480      -0.01741151 </v>
   <v>      -0.01563202      -0.00579979       0.00538896 </v>
   <v>       0.02852373      -0.00013726      -0.01026369 </v>
   <v>       0.04556174      -0.00277799      -0.00830504 </v>
   <v>      -0.00613932      -0.00317924       0.00163709 </v>
   <v>      -0.01012548       0.00472331       0.01835282 </v>
   <v>      -0.00145427       0.00115980       0.00588283 </v>
   <v>      -0.00073192       0.00222462       0.00047291 </v>
  </varray>
  <varray name="stress" >
   <v>      -0.09568655      -0.01394226       0.01097782 </v>
   <v>      -0.01394227      -0.05941735       0.00341895 </v>
   <v>       0.01097782       0.00341894      -0.05243266 </v>
  </varray>
  <energy>
   <i name="e_fr_energy">    -43.21214776 </i>
   <i name="e_wo_entrp">    -43.21214776 </i>
   <i name="e_0_energy">      0.00000000 </i>
  </energy>
  <time name="totalsc">    4.32    4.37</time>
 </calculation>
 <calculation>
  <scstep>
   <time name="dav">    0.94    0.94</time>
   <time name="total">    1.37    1.38</time>
   <energy>
    <i name="alphaZ">      0.24464242 </i>
    <i name="ewald">   3746.26675700 </i>
    <i name="hartreedc">  -6422.96890612 </i>
    <i name="XCdc">   -424.68363267 </i>
    <i name="pawpsdc">   1631.88065932 </i>
    <i name="pawaedc">  -1055.40614562 </i>
    <i name="eentropy">      0.00000000 </i>
    <i name="bandstr">   -867.42678886 </i>
    <i name="atom">   3348.88108275 </i>
    <i name="e_fr_energy">    -43.21233178 </i>
    <i name="e_wo_entrp">    -43.21233178 </i>
    <i name="e_0_energy">    -43.21233178 </i>
   </energy>
  </scstep>
  <scstep>
   <time name="diag">    0.18    0.18</time>
   <time name="diis">    0.67    0.67</time>
   <time name="orth">    0.01    0.01</time>
   <time name="total">    1.21    1.23</time>
   <energy>
    <i name="alphaZ">      0.24464242 </i>
    <i name="ewald">   3746.26675700 </i>
    <i name="hartreedc">  -6422.93650099 </i>
    <i name="XCdc">   -424.68328333 </i>
    <i name="pawpsdc">   1631.81220873 </i>
    <i name="pawaedc">  -1055.33662728 </i>
    <i name="eentropy">      0.00000000 </i>
    <i name="bandstr">   -867.46065556 </i>
    <i name="atom">   3348.88108275 </i>
    <i name="e_fr_energy">    -43.21237626 </i>
    <i name="e_wo_entrp">    -43.21237626 </i>
    <i name="e_0_energy">    -43.21237626 </i>
   </energy>
  </scstep>
  <structure>
   <crystal>
    <varray name="basis" >
     <v>      28.79971922       0.00000000       0.00000000 </v>
     <v>       0.00000000      28.79971922       0.00000000 </v>
     <v>       0.00000000       0.00000000      28.79971922 </v>
    </varray>
    <i name="volume">  23887.17332963 </i>
    <varray name="rec_basis" >
     <v>       0.03472256       0.00000000       0.00000000 </v>
     <v>       0.00000000       0.03472256       0.00000000 </v>
     <v>       0.00000000       0.00000000       0.03472256 </v>
    </varray>
   </crystal>
   <varray name="positions" >
    <v>       0.57095419       0.53347709       0.35550347 </v>
    <v>       0.65191686       0.57980164       0.37898441 </v>
    <v>       0.51141220       0.59276334       0.39949299 </v>
    <v>       0.71967250       0.52385562       0.41466156 </v>
    <v>       0.46285478       0.55293224       0.47312415 </v>
    <v>       0.23352042       0.30301605       0.54366949 </v>
    <v>       0.32635628       0.32794468       0.53023006 </v>
    <v>       0.30861769       0.42154705       0.54056768 </v>
    <v>       0.70875139       0.50641288       0.50781893 </v>
    <v>       0.19529706       0.38420965       0.56211015 </v>
    <v>       0.38652582       0.46167671       0.51028758 </v>
    <v>       0.71032253       0.59262650       0.54992984 </v>
    <v>       0.52152030       0.52742732       0.54255563 </v>
    <v>       0.63828915       0.58139019       0.61142660 </v>
    <v>       0.55398884       0.61091906       0.57963745 </v>
   </varray>
  </structure>
  <varray name="forces" >
   <v>      -0.00852163       0.00551565      -0.00415500 </v>
   <v>      -0.00640919      -0.00240503      -0.00868352 </v>
   <v>      -0.00950825       0.00172009       0.00555156 </v>
   <v>      -0.01249749      -0.00340619       0.00551758 </v>
   <v>       0.00065162      -0.02282885      -0.00347886 </v>
   <v>      -0.01924343       0.04362480       0.02678370 </v>
   <v>      -0.01659781       0.00270844      -0.00387487 </v>
   <v>       0.00979879       0.01575827      -0.01474399 </v>
   <v>      -0.01443576      -0.00297339      -0.00068438 </v>
   <v>       0.04586027      -0.03869639      -0.01894465 </v>
   <v>       0.04989463      -0.00241537      -0.00982191 </v>
   <v>      -0.00627937      -0.00480241       0.00127190 </v>
   <v>      -0.01086326       0.00116281       0.01760181 </v>
   <v>      -0.00171555       0.00138940       0.00550775 </v>
   <v>      -0.00013356       0.00564818       0.00215288 </v>
  </varray>
  <varray name="stress" >
   <v>      -0.09787272      -0.01184945       0.01027943 </v>
   <v>      -0.01184945      -0.06519097       0.00210270 </v>
   <v>       0.01027943       0.00210271      -0.05290750 </v>
  </varray>
  <energy>
   <i name="e_fr_energy">    -43.21237626 </i>
   <i name="e_wo_entrp">    -43.21237626 </i>
   <i name="e_0_energy">      0.00000000 </i>
  </energy>
  <time name="totalsc">    4.18    4.23</time>
  <eigenvalues>
   <array>
    <dimension dim="1">band</dimension>
    <dimension dim="2">kpoint</dimension>
    <dimension dim="3">spin</dimension>
    <field>eigene</field>
    <field>occ</field>
    <set>
     <set comment="spin 1">
      <set comment="kpoint 1">
       <r>  -17.4240    1.0000 </r>
       <r>  -17.2472    1.0000 </r>
       <r>  -16.9614    1.0000 </r>
       <r>  -16.9311    1.0000 </r>
       <r>  -16.5091    1.0000 </r>
       <r>  -16.1804    1.0000 </r>
       <r>  -16.0585    1.0000 </r>
       <r>  -15.3047    1.0000 </r>
       <r>  -14.9539    1.0000 </r>
       <r>  -14.8879    1.0000 </r>
       <r>  -14.1205    1.0000 </r>
       <r>  -13.7461    1.0000 </r>
       <r>  -13.6927    1.0000 </r>
       <r>  -13.3553    1.0000 </r>
       <r>  -13.1528    1.0000 </r>
       <r>   -8.8587    1.0000 </r>
       <r>   -8.7907    1.0000 </r>
       <r>   -8.7108    1.0000 </r>
       <r>   -8.5773    1.0000 </r>
       <r>   -8.5342    1.0000 </r>
       <r>   -8.0162    1.0000 </r>
       <r>   -7.9952    1.0000 </r>
       <r>   -7.7246    1.0000 </r>
       <r>   -7.5853    1.0000 </r>
       <r>   -7.5354    1.0000 </r>
       <r>   -7.4842    1.0000 </r>
       <r>   -7.3896    1.0000 </r>
       <r>   -7.3278    1.0000 </r>
       <r>   -7.3135    1.0000 </r>
       <r>   -7.1266    1.0000 </r>
       <r>   -6.5646    1.0000 </r>
       <r>   -6.3325    1.0000 </r>
       <r>   -6.2110    1.0000 </r>
       <r>   -6.0288    1.0000 </r>
       <r>   -5.9382    1.0000 </r>
       <r>   -5.7443    1.0000 </r>
       <r>   -5.6925    1.0000 </r>
       <r>   -5.6693    1.0000 </r>
       <r>   -5.4924    1.0000 </r>
       <r>   -5.4367    1.0000 </r>
       <r>   -5.2851    1.0000 </r>
       <r>   -5.1287    1.0000 </r>
       <r>   -4.9560    1.0000 </r>
       <r>   -4.9224    1.0000 </r>
       <r>   -4.8310    1.0000 </r>
       <r>   -4.2695    0.0000 </r>
       <r>   -3.5053    0.0000 </r>
       <r>   -3.4200    0.0000 </r>
       <r>   -3.3644    0.0000 </r>
       <r>   -3.2806    0.0000 </r>
       <r>   -3.1517    0.0000 </r>
       <r>   -2.9908    0.0000 </r>
       <r>   -2.8837    0.0000 </r>
       <r>   -2.7369    0.0000 </r>
       <r>   -2.7183    0.0000 </r>
       <r>   -2.3262    0.0000 </r>
       <r>   -2.1532    0.0000 </r>
       <r>   -2.0900    0.0000 </r>
       <r>   -1.9607    0.0000 </r>
       <r>   -1.5435    0.0000 </r>
       <r>   -0.5358    0.0000 </r>
       <r>   -0.4006    0.0000 </r>
       <r>   -0.0774    0.0000 </r>
       <r>   -0.0312    0.0000 </r>
      </set>
     </set>
     <set comment="spin 2">
      <set comment="kpoint 1">
       <r>  -17.4392    1.0000 </r>
       <r>  -17.2461    1.0000 </r>
       <r>  -16.9608    1.0000 </r>
       <r>  -16.9297    1.0000 </r>
       <r>  -16.5093    1.0000 </r>
       <r>  -16.1794    1.0000 </r>
       <r>  -16.0578    1.0000 </r>
       <r>  -15.3179    1.0000 </r>
       <r>  -14.9534    1.0000 </r>
       <r>  -14.8865    1.0000 </r>
       <r>  -14.1039    1.0000 </r>
       <r>  -13.7474    1.0000 </r>
       <r>  -13.6955    1.0000 </r>
       <r>  -13.3482    1.0000 </r>
       <r>  -13.1491    1.0000 </r>
       <r>   -8.8535    1.0000 </r>
       <r>   -8.7904    1.0000 </r>
       <r>   -8.7223    1.0000 </r>
       <r>   -8.5762    1.0000 </r>
       <r>   -8.5267    1.0000 </r>
       <r>   -8.0150    1.0000 </r>
       <r>   -7.9946    1.0000 </r>
       <r>   -7.7253    1.0000 </r>
       <r>   -7.5848    1.0000 </r>
       <r>   -7.5703    1.0000 </r>
       <r>   -7.4822    1.0000 </r>
       <r>   -7.4113    1.0000 </r>
       <r>   -7.3305    1.0000 </r>
       <r>   -7.3131    1.0000 </r>
       <r>   -7.1180    1.0000 </r>
       <r>   -6.5567    1.0000 </r>
       <r>   -6.3317    1.0000 </r>
       <r>   -6.2082    1.0000 </r>
       <r>   -6.0282    1.0000 </r>
       <r>   -5.9365    1.0000 </r>
       <r>   -5.7432    1.0000 </r>
       <r>   -5.7237    1.0000 </r>
       <r>   -5.6889    1.0000 </r>
       <r>   -5.4961    1.0000 </r>
       <r>   -5.4350    1.0000 </r>
       <r>   -5.2843    1.0000 </r>
       <r>   -5.1005    1.0000 </r>
       <r>   -4.9347    1.0000 </r>
       <r>   -4.9099    1.0000 </r>
       <r>   -4.8154    1.0000 </r>
       <r>   -4.2654    0.0000 </r>
       <r>   -3.5016    0.0000 </r>
       <r>   -3.4258    0.0000 </r>
       <r>   -3.3673    0.0000 </r>
       <r>   -3.2798    0.0000 </r>
       <r>   -3.1462    0.0000 </r>
       <r>   -2.9902    0.0000 </r>
       <r>   -2.8860    0.0000 </r>
       <r>   -2.7337    0.0000 </r>
       <r>   -2.7181    0.0000 </r>
       <r>   -2.3259    0.0000 </r>
       <r>   -2.1873    0.0000 </r>
       <r>   -2.0965    0.0000 </r>
       <r>   -1.9605    0.0000 </r>
       <r>   -1.5066    0.0000 </r>
       <r>   -0.5309    0.0000 </r>
       <r>   -0.4090    0.0000 </r>
       <r>   -0.0703    0.0000 </r>
       <r>   -0.0367    0.0000 </r>
      </set>
     </set>
    </set>
   </array>
  </eigenvalues>
  <separator name="orbital magnetization" >
   <v name="MAGDIPOLOUT">      0.00000000      0.00000000      0.00000000</v>
  </separator>
  <dos>
   <i name="efermi">     -4.80972213 </i>
   <total>
    <array>
     <dimension dim="1">gridpoints</dimension>
     <dimension dim="2">spin</dimension>
     <field>energy</field>
     <field>total</field>
     <field>integrated</field>
     <set>
      <set comment="spin 1">
       <r>   -18.3096     0.0000     0.0000 </r>
       <r>   -18.2458     0.0000     0.0000 </r>
       <r>   -18.1819     0.0000     0.0000 </r>
       <r>   -18.1181     0.0000     0.0000 </r>
       <r>   -18.0543     0.0000     0.0000 </r>
       <r>   -17.9904     0.0000     0.0000 </r>
       <r>   -17.9266     0.0000     0.0000 </r>
       <r>   -17.8628     0.0000     0.0000 </r>
       <r>   -17.7990     0.0000     0.0000 </r>
       <r>   -17.7351     0.0000     0.0000 </r>
       <r>   -17.6713     0.0000     0.0000 </r>
       <r>   -17.6075     0.0000     0.0000 </r>
       <r>   -17.5436     0.0000     0.0000 </r>
       <r>   -17.4798     0.0000     0.0000 </r>
       <r>   -17.4160     0.0000     1.0000 </r>
       <r>   -17.3521     0.0000     1.0000 </r>
       <r>   -17.2883     0.0000     1.0000 </r>
       <r>   -17.2245     0.0000     2.0000 </r>
       <r>   -17.1607     0.0000     2.0000 </r>
       <r>   -17.0968     0.0000     2.0000 </r>
       <r>   -17.0330     0.0000     2.0000 </r>
       <r>   -16.9692     0.0000     2.0000 </r>
       <r>   -16.9053     0.0000     4.0000 </r>
       <r>   -16.8415     0.0000     4.0000 </r>
       <r>   -16.7777     0.0000     4.0000 </r>
       <r>   -16.7139     0.0000     4.0000 </r>
       <r>   -16.6500     0.0000     4.0000 </r>
       <r>   -16.5862     0.0000     4.0000 </r>
       <r>   -16.5224     0.0000     4.0000 </r>
       <r>   -16.4585     0.0000     5.0000 </r>
       <r>   -16.3947     0.0000     5.0000 </r>
       <r>   -16.3309     0.0000     5.0000 </r>
       <r>   -16.2671     0.0000     5.0000 </r>
       <r>   -16.2032     0.0000     5.0000 </r>
       <r>   -16.1394     0.0000     6.0000 </r>
       <r>   -16.0756     0.0000     6.0000 </r>
       <r>   -16.0117     0.0000     7.0000 </r>
       <r>   -15.9479     0.0000     7.0000 </r>
       <r>   -15.8841     0.0000     7.0000 </r>
       <r>   -15.8202     0.0000     7.0000 </r>
       <r>   -15.7564     0.0000     7.0000 </r>
       <r>   -15.6926     0.0000     7.0000 </r>
       <r>   -15.6288     0.0000     7.0000 </r>
       <r>   -15.5649     0.0000     7.0000 </r>
       <r>   -15.5011     0.0000     7.0000 </r>
       <r>   -15.4373     0.0000     7.0000 </r>
       <r>   -15.3734     0.0000     7.0000 </r>
       <r>   -15.3096     0.0000     7.0000 </r>
       <r>   -15.2458     0.0000     8.0000 </r>
       <r>   -15.1820     0.0000     8.0000 </r>
       <r>   -15.1181     0.0000     8.0000 </r>
       <r>   -15.0543     0.0000     8.0000 </r>
       <r>   -14.9905     0.0000     8.0000 </r>
       <r>   -14.9266     0.0000     9.0000 </r>
       <r>   -14.8628     0.0000    10.0000 </r>
       <r>   -14.7990     0.0000    10.0000 </r>
       <r>   -14.7352     0.0000    10.0000 </r>
       <r>   -14.6713     0.0000    10.0000 </r>
       <r>   -14.6075     0.0000    10.0000 </r>
       <r>   -14.5437     0.0000    10.0000 </r>
       <r>   -14.4798     0.0000    10.0000 </r>
       <r>   -14.4160     0.0000    10.0000 </r>
       <r>   -14.3522     0.0000    10.0000 </r>
       <r>   -14.2883     0.0000    10.0000 </r>
       <r>   -14.2245     0.0000    10.0000 </r>
       <r>   -14.1607     0.0000    10.0000 </r>
       <r>   -14.0969     0.0000    11.0000 </r>
       <r>   -14.0330     0.0000    11.0000 </r>
       <r>   -13.9692     0.0000    11.0000 </r>
       <r>   -13.9054     0.0000    11.0000 </r>
       <r>   -13.8415     0.0000    11.0000 </r>
       <r>   -13.7777     0.0000    11.0000 </r>
       <r>   -13.7139     0.0000    12.0000 </r>
       <r>   -13.6501     0.0000    13.0000 </r>
       <r>   -13.5862     0.0000    13.0000 </r>
       <r>   -13.5224     0.0000    13.0000 </r>
       <r>   -13.4586     0.0000    13.0000 </r>
       <r>   -13.3947     0.0000    13.0000 </r>
       <r>   -13.3309     0.0000    14.0000 </r>
       <r>   -13.2671     0.0000    14.0000 </r>
       <r>   -13.2033     0.0000    14.0000 </r>
       <r>   -13.1394     0.0000    15.0000 </r>
       <r>   -13.0756     0.0000    15.0000 </r>
       <r>   -13.0118     0.0000    15.0000 </r>
       <r>   -12.9479     0.0000    15.0000 </r>
       <r>   -12.8841     0.0000    15.0000 </r>
       <r>   -12.8203     0.0000    15.0000 </r>
       <r>   -12.7565     0.0000    15.0000 </r>
       <r>   -12.6926     0.0000    15.0000 </r>
       <r>   -12.6288     0.0000    15.0000 </r>
       <r>   -12.5650     0.0000    15.0000 </r>
       <r>   -12.5011     0.0000    15.0000 </r>
       <r>   -12.4373     0.0000    15.0000 </r>
       <r>   -12.3735     0.0000    15.0000 </r>
       <r>   -12.3096     0.0000    15.0000 </r>
       <r>   -12.2458     0.0000    15.0000 </r>
       <r>   -12.1820     0.0000    15.0000 </r>
       <r>   -12.1182     0.0000    15.0000 </r>
       <r>   -12.0543     0.0000    15.0000 </r>
       <r>   -11.9905     0.0000    15.0000 </r>
       <r>   -11.9267     0.0000    15.0000 </r>
       <r>   -11.8628     0.0000    15.0000 </r>
       <r>   -11.7990     0.0000    15.0000 </r>
       <r>   -11.7352     0.0000    15.0000 </r>
       <r>   -11.6714     0.0000    15.0000 </r>
       <r>   -11.6075     0.0000    15.0000 </r>
       <r>   -11.5437     0.0000    15.0000 </r>
       <r>   -11.4799     0.0000    15.0000 </r>
       <r>   -11.4160     0.0000    15.0000 </r>
       <r>   -11.3522     0.0000    15.0000 </r>
       <r>   -11.2884     0.0000    15.0000 </r>
       <r>   -11.2246     0.0000    15.0000 </r>
       <r>   -11.1607     0.0000    15.0000 </r>
       <r>   -11.0969     0.0000    15.0000 </r>
       <r>   -11.0331     0.0000    15.0000 </r>
       <r>   -10.9692     0.0000    15.0000 </r>
       <r>   -10.9054     0.0000    15.0000 </r>
       <r>   -10.8416     0.0000    15.0000 </r>
       <r>   -10.7777     0.0000    15.0000 </r>
       <r>   -10.7139     0.0000    15.0000 </r>
       <r>   -10.6501     0.0000    15.0000 </r>
       <r>   -10.5863     0.0000    15.0000 </r>
       <r>   -10.5224     0.0000    15.0000 </r>
       <r>   -10.4586     0.0000    15.0000 </r>
       <r>   -10.3948     0.0000    15.0000 </r>
       <r>   -10.3309     0.0000    15.0000 </r>
       <r>   -10.2671     0.0000    15.0000 </r>
       <r>   -10.2033     0.0000    15.0000 </r>
       <r>   -10.1395     0.0000    15.0000 </r>
       <r>   -10.0756     0.0000    15.0000 </r>
       <r>   -10.0118     0.0000    15.0000 </r>
       <r>    -9.9480     0.0000    15.0000 </r>
       <r>    -9.8841     0.0000    15.0000 </r>
       <r>    -9.8203     0.0000    15.0000 </r>
       <r>    -9.7565     0.0000    15.0000 </r>
       <r>    -9.6927     0.0000    15.0000 </r>
       <r>    -9.6288     0.0000    15.0000 </r>
       <r>    -9.5650     0.0000    15.0000 </r>
       <r>    -9.5012     0.0000    15.0000 </r>
       <r>    -9.4373     0.0000    15.0000 </r>
       <r>    -9.3735     0.0000    15.0000 </r>
       <r>    -9.3097     0.0000    15.0000 </r>
       <r>    -9.2458     0.0000    15.0000 </r>
       <r>    -9.1820     0.0000    15.0000 </r>
       <r>    -9.1182     0.0000    15.0000 </r>
       <r>    -9.0544     0.0000    15.0000 </r>
       <r>    -8.9905     0.0000    15.0000 </r>
       <r>    -8.9267     0.0000    15.0000 </r>
       <r>    -8.8629     0.0000    15.0000 </r>
       <r>    -8.7990     0.0000    16.0000 </r>
       <r>    -8.7352     0.0000    17.0000 </r>
       <r>    -8.6714     0.0000    18.0000 </r>
       <r>    -8.6076     0.0000    18.0000 </r>
       <r>    -8.5437     0.0000    19.0000 </r>
       <r>    -8.4799     0.0000    20.0000 </r>
       <r>    -8.4161     0.0000    20.0000 </r>
       <r>    -8.3522     0.0000    20.0000 </r>
       <r>    -8.2884     0.0000    20.0000 </r>
       <r>    -8.2246     0.0000    20.0000 </r>
       <r>    -8.1608     0.0000    20.0000 </r>
       <r>    -8.0969     0.0000    20.0000 </r>
       <r>    -8.0331     0.0000    20.0000 </r>
       <r>    -7.9693     0.0000    22.0000 </r>
       <r>    -7.9054     0.0000    22.0000 </r>
       <r>    -7.8416     0.0000    22.0000 </r>
       <r>    -7.7778     0.0000    22.0000 </r>
       <r>    -7.7139     0.0000    23.0000 </r>
       <r>    -7.6501     0.0000    23.0000 </r>
       <r>    -7.5863     0.0000    23.0000 </r>
       <r>    -7.5225     0.0000    25.0000 </r>
       <r>    -7.4586     0.0000    26.0000 </r>
       <r>    -7.3948     0.0000    26.0000 </r>
       <r>    -7.3310     0.0000    27.0000 </r>
       <r>    -7.2671     0.0000    29.0000 </r>
       <r>    -7.2033     0.0000    29.0000 </r>
       <r>    -7.1395     0.0000    29.0000 </r>
       <r>    -7.0757     0.0000    30.0000 </r>
       <r>    -7.0118     0.0000    30.0000 </r>
       <r>    -6.9480     0.0000    30.0000 </r>
       <r>    -6.8842     0.0000    30.0000 </r>
       <r>    -6.8203     0.0000    30.0000 </r>
       <r>    -6.7565     0.0000    30.0000 </r>
       <r>    -6.6927     0.0000    30.0000 </r>
       <r>    -6.6289     0.0000    30.0000 </r>
       <r>    -6.5650     0.0000    30.0000 </r>
       <r>    -6.5012     0.0000    31.0000 </r>
       <r>    -6.4374     0.0000    31.0000 </r>
       <r>    -6.3735     0.0000    31.0000 </r>
       <r>    -6.3097     0.0000    32.0000 </r>
       <r>    -6.2459     0.0000    32.0000 </r>
       <r>    -6.1820     0.0000    33.0000 </r>
       <r>    -6.1182     0.0000    33.0000 </r>
       <r>    -6.0544     0.0000    33.0000 </r>
       <r>    -5.9906     0.0000    34.0000 </r>
       <r>    -5.9267     0.0000    35.0000 </r>
       <r>    -5.8629     0.0000    35.0000 </r>
       <r>    -5.7991     0.0000    35.0000 </r>
       <r>    -5.7352     0.0000    36.0000 </r>
       <r>    -5.6714     0.0000    37.0000 </r>
       <r>    -5.6076     0.0000    38.0000 </r>
       <r>    -5.5438     0.0000    38.0000 </r>
       <r>    -5.4799     0.0000    39.0000 </r>
       <r>    -5.4161     0.0000    40.0000 </r>
       <r>    -5.3523     0.0000    40.0000 </r>
       <r>    -5.2884     0.0000    40.0000 </r>
       <r>    -5.2246     0.0000    41.0000 </r>
       <r>    -5.1608     0.0000    41.0000 </r>
       <r>    -5.0970     0.0000    42.0000 </r>
       <r>    -5.0331     0.0000    42.0000 </r>
       <r>    -4.9693     0.0000    42.0000 </r>
       <r>    -4.9055     0.0000    44.0000 </r>
       <r>    -4.8416     0.0000    44.0000 </r>
       <r>    -4.7778     0.0000    45.0000 </r>
       <r>    -4.7140     0.0000    45.0000 </r>
       <r>    -4.6501     0.0000    45.0000 </r>
       <r>    -4.5863     0.0000    45.0000 </r>
       <r>    -4.5225     0.0000    45.0000 </r>
       <r>    -4.4587     0.0000    45.0000 </r>
       <r>    -4.3948     0.0000    45.0000 </r>
       <r>    -4.3310     0.0000    45.0000 </r>
       <r>    -4.2672     0.0000    46.0000 </r>
       <r>    -4.2033     0.0000    46.0000 </r>
       <r>    -4.1395     0.0000    46.0000 </r>
       <r>    -4.0757     0.0000    46.0000 </r>
       <r>    -4.0119     0.0000    46.0000 </r>
       <r>    -3.9480     0.0000    46.0000 </r>
       <r>    -3.8842     0.0000    46.0000 </r>
       <r>    -3.8204     0.0000    46.0000 </r>
       <r>    -3.7565     0.0000    46.0000 </r>
       <r>    -3.6927     0.0000    46.0000 </r>
       <r>    -3.6289     0.0000    46.0000 </r>
       <r>    -3.5651     0.0000    46.0000 </r>
       <r>    -3.5012     0.0000    47.0000 </r>
       <r>    -3.4374     0.0000    47.0000 </r>
       <r>    -3.3736     0.0000    48.0000 </r>
       <r>    -3.3097     0.0000    49.0000 </r>
       <r>    -3.2459     0.0000    50.0000 </r>
       <r>    -3.1821     0.0000    50.0000 </r>
       <r>    -3.1182     0.0000    51.0000 </r>
       <r>    -3.0544     0.0000    51.0000 </r>
       <r>    -2.9906    15.5412    51.9920 </r>
       <r>    -2.9268     0.0000    52.0000 </r>
       <r>    -2.8629     0.0000    53.0000 </r>
       <r>    -2.7991     0.0000    53.0000 </r>
       <r>    -2.7353     0.0000    54.0000 </r>
       <r>    -2.6714     0.0000    55.0000 </r>
       <r>    -2.6076     0.0000    55.0000 </r>
       <r>    -2.5438     0.0000    55.0000 </r>
       <r>    -2.4800     0.0000    55.0000 </r>
       <r>    -2.4161     0.0000    55.0000 </r>
       <r>    -2.3523     0.0000    55.0000 </r>
       <r>    -2.2885     0.0000    56.0000 </r>
       <r>    -2.2246     0.0000    56.0000 </r>
       <r>    -2.1608     0.0000    56.0000 </r>
       <r>    -2.0970     0.0000    57.0000 </r>
       <r>    -2.0332     0.0000    58.0000 </r>
       <r>    -1.9693     0.0000    58.0000 </r>
       <r>    -1.9055     0.0000    59.0000 </r>
       <r>    -1.8417     0.0000    59.0000 </r>
       <r>    -1.7778     0.0000    59.0000 </r>
       <r>    -1.7140     0.0000    59.0000 </r>
       <r>    -1.6502     0.0000    59.0000 </r>
       <r>    -1.5864     0.0000    59.0000 </r>
       <r>    -1.5225     0.0000    60.0000 </r>
       <r>    -1.4587     0.0000    60.0000 </r>
       <r>    -1.3949     0.0000    60.0000 </r>
       <r>    -1.3310     0.0000    60.0000 </r>
       <r>    -1.2672     0.0000    60.0000 </r>
       <r>    -1.2034     0.0000    60.0000 </r>
       <r>    -1.1395     0.0000    60.0000 </r>
       <r>    -1.0757     0.0000    60.0000 </r>
       <r>    -1.0119     0.0000    60.0000 </r>
       <r>    -0.9481     0.0000    60.0000 </r>
       <r>    -0.8842     0.0000    60.0000 </r>
       <r>    -0.8204     0.0000    60.0000 </r>
       <r>    -0.7566     0.0000    60.0000 </r>
       <r>    -0.6927     0.0000    60.0000 </r>
       <r>    -0.6289     0.0000    60.0000 </r>
       <r>    -0.5651     0.0000    60.0000 </r>
       <r>    -0.5013     0.0000    61.0000 </r>
       <r>    -0.4374     0.0000    61.0000 </r>
       <r>    -0.3736     0.0000    62.0000 </r>
       <r>    -0.3098     0.0000    62.0000 </r>
       <r>    -0.2459     0.0000    62.0000 </r>
       <r>    -0.1821     0.0000    62.0000 </r>
       <r>    -0.1183     0.0000    62.0000 </r>
       <r>    -0.0545     0.0000    63.0000 </r>
       <r>     0.0094     0.0000    64.0000 </r>
       <r>     0.0732     0.0000    64.0000 </r>
       <r>     0.1370     0.0000    64.0000 </r>
       <r>     0.2009     0.0000    64.0000 </r>
       <r>     0.2647     0.0000    64.0000 </r>
       <r>     0.3285     0.0000    64.0000 </r>
       <r>     0.3924     0.0000    64.0000 </r>
       <r>     0.4562     0.0000    64.0000 </r>
       <r>     0.5200     0.0000    64.0000 </r>
       <r>     0.5838     0.0000    64.0000 </r>
       <r>     0.6477     0.0000    64.0000 </r>
       <r>     0.7115     0.0000    64.0000 </r>
       <r>     0.7753     0.0000    64.0000 </r>
       <r>     0.8392     0.0000    64.0000 </r>
      </set>
      <set comment="spin 2">
       <r>   -18.3096     0.0000     0.0000 </r>
       <r>   -18.2458     0.0000     0.0000 </r>
       <r>   -18.1819     0.0000     0.0000 </r>
       <r>   -18.1181     0.0000     0.0000 </r>
       <r>   -18.0543     0.0000     0.0000 </r>
       <r>   -17.9904     0.0000     0.0000 </r>
       <r>   -17.9266     0.0000     0.0000 </r>
       <r>   -17.8628     0.0000     0.0000 </r>
       <r>   -17.7990     0.0000     0.0000 </r>
       <r>   -17.7351     0.0000     0.0000 </r>
       <r>   -17.6713     0.0000     0.0000 </r>
       <r>   -17.6075     0.0000     0.0000 </r>
       <r>   -17.5436     0.0000     0.0000 </r>
       <r>   -17.4798     0.0000     0.0000 </r>
       <r>   -17.4160     0.0000     1.0000 </r>
       <r>   -17.3521     0.0000     1.0000 </r>
       <r>   -17.2883     0.0000     1.0000 </r>
       <r>   -17.2245     0.0000     2.0000 </r>
       <r>   -17.1607     0.0000     2.0000 </r>
       <r>   -17.0968     0.0000     2.0000 </r>
       <r>   -17.0330     0.0000     2.0000 </r>
       <r>   -16.9692     0.0000     2.0000 </r>
       <r>   -16.9053     0.0000     4.0000 </r>
       <r>   -16.8415     0.0000     4.0000 </r>
       <r>   -16.7777     0.0000     4.0000 </r>
       <r>   -16.7139     0.0000     4.0000 </r>
       <r>   -16.6500     0.0000     4.0000 </r>
       <r>   -16.5862     0.0000     4.0000 </r>
       <r>   -16.5224     0.0000     4.0000 </r>
       <r>   -16.4585     0.0000     5.0000 </r>
       <r>   -16.3947     0.0000     5.0000 </r>
       <r>   -16.3309     0.0000     5.0000 </r>
       <r>   -16.2671     0.0000     5.0000 </r>
       <r>   -16.2032     0.0000     5.0000 </r>
       <r>   -16.1394     0.0000     6.0000 </r>
       <r>   -16.0756     0.0000     6.0000 </r>
       <r>   -16.0117     0.0000     7.0000 </r>
       <r>   -15.9479     0.0000     7.0000 </r>
       <r>   -15.8841     0.0000     7.0000 </r>
       <r>   -15.8202     0.0000     7.0000 </r>
       <r>   -15.7564     0.0000     7.0000 </r>
       <r>   -15.6926     0.0000     7.0000 </r>
       <r>   -15.6288     0.0000     7.0000 </r>
       <r>   -15.5649     0.0000     7.0000 </r>
       <r>   -15.5011     0.0000     7.0000 </r>
       <r>   -15.4373     0.0000     7.0000 </r>
       <r>   -15.3734     0.0000     7.0000 </r>
       <r>   -15.3096     0.0000     8.0000 </r>
       <r>   -15.2458     0.0000     8.0000 </r>
       <r>   -15.1820     0.0000     8.0000 </r>
       <r>   -15.1181     0.0000     8.0000 </r>
       <r>   -15.0543     0.0000     8.0000 </r>
       <r>   -14.9905     0.0000     8.0000 </r>
       <r>   -14.9266     0.0000     9.0000 </r>
       <r>   -14.8628     0.0000    10.0000 </r>
       <r>   -14.7990     0.0000    10.0000 </r>
       <r>   -14.7352     0.0000    10.0000 </r>
       <r>   -14.6713     0.0000    10.0000 </r>
       <r>   -14.6075     0.0000    10.0000 </r>
       <r>   -14.5437     0.0000    10.0000 </r>
       <r>   -14.4798     0.0000    10.0000 </r>
       <r>   -14.4160     0.0000    10.0000 </r>
       <r>   -14.3522     0.0000    10.0000 </r>
       <r>   -14.2883     0.0000    10.0000 </r>
       <r>   -14.2245     0.0000    10.0000 </r>
       <r>   -14.1607     0.0000    10.0000 </r>
       <r>   -14.0969     0.0000    11.0000 </r>
       <r>   -14.0330     0.0000    11.0000 </r>
       <r>   -13.9692     0.0000    11.0000 </r>
       <r>   -13.9054     0.0000    11.0000 </r>
       <r>   -13.8415     0.0000    11.0000 </r>
       <r>   -13.7777     0.0000    11.0000 </r>
       <r>   -13.7139     0.0000    12.0000 </r>
       <r>   -13.6501     0.0000    13.0000 </r>
       <r>   -13.5862     0.0000    13.0000 </r>
       <r>   -13.5224     0.0000    13.0000 </r>
       <r>   -13.4586     0.0000    13.0000 </r>
       <r>   -13.3947     0.0000    13.0000 </r>
       <r>   -13.3309     0.0000    14.0000 </r>
       <r>   -13.2671     0.0000    14.0000 </r>
       <r>   -13.2033     0.0000    14.0000 </r>
       <r>   -13.1394     0.0000    15.0000 </r>
       <r>   -13.0756     0.0000    15.0000 </r>
       <r>   -13.0118     0.0000    15.0000 </r>
       <r>   -12.9479     0.0000    15.0000 </r>
       <r>   -12.8841     0.0000    15.0000 </r>
       <r>   -12.8203     0.0000    15.0000 </r>
       <r>   -12.7565     0.0000    15.0000 </r>
       <r>   -12.6926     0.0000    15.0000 </r>
       <r>   -12.6288     0.0000    15.0000 </r>
       <r>   -12.5650     0.0000    15.0000 </r>
       <r>   -12.5011     0.0000    15.0000 </r>
       <r>   -12.4373     0.0000    15.0000 </r>
       <r>   -12.3735     0.0000    15.0000 </r>
       <r>   -12.3096     0.0000    15.0000 </r>
       <r>   -12.2458     0.0000    15.0000 </r>
       <r>   -12.1820     0.0000    15.0000 </r>
       <r>   -12.1182     0.0000    15.0000 </r>
       <r>   -12.0543     0.0000    15.0000 </r>
       <r>   -11.9905     0.0000    15.0000 </r>
       <r>   -11.9267     0.0000    15.0000 </r>
       <r>   -11.8628     0.0000    15.0000 </r>
       <r>   -11.7990     0.0000    15.0000 </r>
       <r>   -11.7352     0.0000    15.0000 </r>
       <r>   -11.6714     0.0000    15.0000 </r>
       <r>   -11.6075     0.0000    15.0000 </r>
       <r>   -11.5437     0.0000    15.0000 </r>
       <r>   -11.4799     0.0000    15.0000 </r>
       <r>   -11.4160     0.0000    15.0000 </r>
       <r>   -11.3522     0.0000    15.0000 </r>
       <r>   -11.2884     0.0000    15.0000 </r>
       <r>   -11.2246     0.0000    15.0000 </r>
       <r>   -11.1607     0.0000    15.0000 </r>
       <r>   -11.0969     0.0000    15.0000 </r>
       <r>   -11.0331     0.0000    15.0000 </r>
       <r>   -10.9692     0.0000    15.0000 </r>
       <r>   -10.9054     0.0000    15.0000 </r>
       <r>   -10.8416     0.0000    15.0000 </r>
       <r>   -10.7777     0.0000    15.0000 </r>
       <r>   -10.7139     0.0000    15.0000 </r>
       <r>   -10.6501     0.0000    15.0000 </r>
       <r>   -10.5863     0.0000    15.0000 </r>
       <r>   -10.5224     0.0000    15.0000 </r>
       <r>   -10.4586     0.0000    15.0000 </r>
       <r>   -10.3948     0.0000    15.0000 </r>
       <r>   -10.3309     0.0000    15.0000 </r>
       <r>   -10.2671     0.0000    15.0000 </r>
       <r>   -10.2033     0.0000    15.0000 </r>
       <r>   -10.1395     0.0000    15.0000 </r>
       <r>   -10.0756     0.0000    15.0000 </r>
       <r>   -10.0118     0.0000    15.0000 </r>
       <r>    -9.9480     0.0000    15.0000 </r>
       <r>    -9.8841     0.0000    15.0000 </r>
       <r>    -9.8203     0.0000    15.0000 </r>
       <r>    -9.7565     0.0000    15.0000 </r>
       <r>    -9.6927     0.0000    15.0000 </r>
       <r>    -9.6288     0.0000    15.0000 </r>
       <r>    -9.5650     0.0000    15.0000 </r>
       <r>    -9.5012     0.0000    15.0000 </r>
       <r>    -9.4373     0.0000    15.0000 </r>
       <r>    -9.3735     0.0000    15.0000 </r>
       <r>    -9.3097     0.0000    15.0000 </r>
       <r>    -9.2458     0.0000    15.0000 </r>
       <r>    -9.1820     0.0000    15.0000 </r>
       <r>    -9.1182     0.0000    15.0000 </r>
       <r>    -9.0544     0.0000    15.0000 </r>
       <r>    -8.9905     0.0000    15.0000 </r>
       <r>    -8.9267     0.0000    15.0000 </r>
       <r>    -8.8629     0.0000    15.0000 </r>
       <r>    -8.7990     0.0000    16.0000 </r>
       <r>    -8.7352     0.0000    17.0000 </r>
       <r>    -8.6714     0.0000    18.0000 </r>
       <r>    -8.6076     0.0000    18.0000 </r>
       <r>    -8.5437     0.0000    19.0000 </r>
       <r>    -8.4799     0.0000    20.0000 </r>
       <r>    -8.4161     0.0000    20.0000 </r>
       <r>    -8.3522     0.0000    20.0000 </r>
       <r>    -8.2884     0.0000    20.0000 </r>
       <r>    -8.2246     0.0000    20.0000 </r>
       <r>    -8.1608     0.0000    20.0000 </r>
       <r>    -8.0969     0.0000    20.0000 </r>
       <r>    -8.0331     0.0000    20.0000 </r>
       <r>    -7.9693     0.0000    22.0000 </r>
       <r>    -7.9054     0.0000    22.0000 </r>
       <r>    -7.8416     0.0000    22.0000 </r>
       <r>    -7.7778     0.0000    22.0000 </r>
       <r>    -7.7139     0.0000    23.0000 </r>
       <r>    -7.6501     0.0000    23.0000 </r>
       <r>    -7.5863     0.0000    23.0000 </r>
       <r>    -7.5225     0.0000    25.0000 </r>
       <r>    -7.4586     0.0000    26.0000 </r>
       <r>    -7.3948     0.0000    27.0000 </r>
       <r>    -7.3310     0.0000    27.0000 </r>
       <r>    -7.2671     0.0000    29.0000 </r>
       <r>    -7.2033     0.0000    29.0000 </r>
       <r>    -7.1395     0.0000    29.0000 </r>
       <r>    -7.0757     0.0000    30.0000 </r>
       <r>    -7.0118     0.0000    30.0000 </r>
       <r>    -6.9480     0.0000    30.0000 </r>
       <r>    -6.8842     0.0000    30.0000 </r>
       <r>    -6.8203     0.0000    30.0000 </r>
       <r>    -6.7565     0.0000    30.0000 </r>
       <r>    -6.6927     0.0000    30.0000 </r>
       <r>    -6.6289     0.0000    30.0000 </r>
       <r>    -6.5650     0.0000    30.0000 </r>
       <r>    -6.5012     0.0000    31.0000 </r>
       <r>    -6.4374     0.0000    31.0000 </r>
       <r>    -6.3735     0.0000    31.0000 </r>
       <r>    -6.3097     0.0000    32.0000 </r>
[...]
        <r>  0.0020  0.0210  0.0036  0.0027  0.0001  0.0011  0.0002  0.0000  0.0007 </r>
        <r>  0.0078  0.0605  0.0015  0.0053  0.0010  0.0005  0.0000  0.0009  0.0002 </r>
        <r>  0.0011  0.0007  0.0048  0.0095  0.0009  0.0002  0.0001  0.0005  0.0011 </r>
        <r>  0.0105  0.0612  0.0063  0.0005  0.0005  0.0011  0.0003  0.0007  0.0000 </r>
       </set>
       <set comment="band 52">
        <r>  0.0042  0.0192  0.0046  0.0036  0.0000  0.0001  0.0001  0.0010  0.0001 </r>
        <r>  0.0011  0.0177  0.0160  0.0286  0.0006  0.0004  0.0002  0.0008  0.0008 </r>
        <r>  0.0064  0.0315  0.0003  0.0001  0.0001  0.0000  0.0000  0.0016  0.0001 </r>
        <r>  0.0162  0.0014  0.0134  0.0388  0.0009  0.0036  0.0003  0.0001  0.0001 </r>
        <r>  0.0000  0.0001  0.0328  0.0055  0.0000  0.0000  0.0001  0.0010  0.0000 </r>
        <r>  0.0005  0.0004  0.0005  0.0148  0.0006  0.0000  0.0001  0.0000  0.0004 </r>
        <r>  0.0025  0.0003  0.0002  0.0148  0.0001  0.0000  0.0003  0.0000  0.0000 </r>
        <r>  0.0010  0.0039  0.0008  0.0000  0.0001  0.0000  0.0001  0.0001  0.0000 </r>
        <r>  0.0001  0.0135  0.0856  0.0042  0.0000  0.0036  0.0018  0.0002  0.0006 </r>
        <r>  0.0001  0.0021  0.0000  0.0012  0.0001  0.0000  0.0000  0.0000  0.0002 </r>
        <r>  0.0001  0.0094  0.0005  0.0008  0.0000  0.0000  0.0000  0.0000  0.0000 </r>
        <r>  0.0052  0.0469  0.0004  0.0001  0.0001  0.0003  0.0003  0.0000  0.0013 </r>
        <r>  0.0022  0.0122  0.0011  0.0029  0.0000  0.0001  0.0002  0.0003  0.0000 </r>
        <r>  0.0000  0.0000  0.0002  0.0006  0.0007  0.0000  0.0000  0.0002  0.0001 </r>
        <r>  0.0007  0.0058  0.0003  0.0029  0.0003  0.0001  0.0000  0.0002  0.0000 </r>
       </set>
       <set comment="band 53">
        <r>  0.0018  0.0145  0.0018  0.0003  0.0000  0.0000  0.0007  0.0000  0.0000 </r>
        <r>  0.0001  0.0000  0.0069  0.0046  0.0001  0.0002  0.0001  0.0000  0.0004 </r>
        <r>  0.0008  0.0056  0.0410  0.0029  0.0004  0.0012  0.0010  0.0000  0.0006 </r>
        <r>  0.0026  0.0004  0.0122  0.0018  0.0001  0.0004  0.0003  0.0000  0.0001 </r>
        <r>  0.0131  0.0000  0.0001  0.0794  0.0004  0.0030  0.0005  0.0003  0.0000 </r>
        <r>  0.0012  0.0008  0.0009  0.0315  0.0011  0.0000  0.0002  0.0000  0.0008 </r>
        <r>  0.0051  0.0002  0.0008  0.0318  0.0001  0.0000  0.0007  0.0000  0.0000 </r>
        <r>  0.0014  0.0088  0.0002  0.0013  0.0001  0.0000  0.0001  0.0001  0.0000 </r>
        <r>  0.0006  0.0000  0.0182  0.0000  0.0000  0.0005  0.0007  0.0000  0.0001 </r>
        <r>  0.0001  0.0051  0.0001  0.0048  0.0001  0.0000  0.0000  0.0000  0.0004 </r>
        <r>  0.0011  0.0150  0.0002  0.0002  0.0001  0.0000  0.0000  0.0001  0.0001 </r>
        <r>  0.0005  0.0037  0.0003  0.0002  0.0000  0.0000  0.0001  0.0000  0.0001 </r>
        <r>  0.0003  0.0063  0.0806  0.0198  0.0013  0.0026  0.0020  0.0006  0.0005 </r>
        <r>  0.0001  0.0003  0.0002  0.0002  0.0000  0.0000  0.0000  0.0000  0.0008 </r>
        <r>  0.0033  0.0347  0.0005  0.0033  0.0005  0.0001  0.0005  0.0000  0.0012 </r>
       </set>
       <set comment="band 54">
        <r>  0.0001  0.0001  0.0000  0.0099  0.0006  0.0000  0.0000  0.0002  0.0000 </r>
        <r>  0.0000  0.0000  0.0000  0.0032  0.0008  0.0000  0.0000  0.0002  0.0000 </r>
        <r>  0.0007  0.0045  0.0068  0.0000  0.0000  0.0001  0.0005  0.0001  0.0001 </r>
        <r>  0.0001  0.0003  0.0133  0.0006  0.0000  0.0003  0.0018  0.0000  0.0002 </r>
        <r>  0.0021  0.0023  0.0184  0.0136  0.0000  0.0000  0.0005  0.0017  0.0003 </r>
        <r>  0.0000  0.0001  0.0000  0.0003  0.0000  0.0000  0.0000  0.0000  0.0000 </r>
        <r>  0.0000  0.0000  0.0001  0.0001  0.0000  0.0000  0.0000  0.0000  0.0000 </r>
        <r>  0.0000  0.0002  0.0002  0.0001  0.0000  0.0000  0.0000  0.0000  0.0000 </r>
        <r>  0.0109  0.0586  0.0003  0.0051  0.0002  0.0010  0.0000  0.0000  0.0015 </r>
        <r>  0.0000  0.0002  0.0001  0.0000  0.0000  0.0000  0.0000  0.0000  0.0000 </r>
        <r>  0.0000  0.0008  0.0016  0.0006  0.0000  0.0000  0.0000  0.0000  0.0000 </r>
        <r>  0.0010  0.0512  0.0356  0.0114  0.0000  0.0010  0.0000  0.0006  0.0026 </r>
        <r>  0.0122  0.0703  0.0016  0.0042  0.0000  0.0003  0.0000  0.0008  0.0007 </r>
        <r>  0.0053  0.0477  0.0032  0.0020  0.0000  0.0006  0.0005  0.0004  0.0001 </r>
        <r>  0.0014  0.0313  0.0124  0.0336  0.0007  0.0007  0.0000  0.0001  0.0016 </r>
       </set>
       <set comment="band 55">
        <r>  0.0006  0.0003  0.0019  0.1436  0.0058  0.0002  0.0004  0.0017  0.0006 </r>
        <r>  0.0090  0.0471  0.0263  0.0249  0.0015  0.0011  0.0009  0.0002  0.0001 </r>
        <r>  0.0065  0.0409  0.0114  0.0000  0.0003  0.0014  0.0000  0.0004  0.0005 </r>
        <r>  0.0035  0.0042  0.0400  0.0012  0.0000  0.0000  0.0006  0.0004  0.0011 </r>
        <r>  0.0008  0.0003  0.0129  0.0009  0.0000  0.0001  0.0004  0.0006  0.0003 </r>
        <r>  0.0001  0.0001  0.0000  0.0003  0.0000  0.0000  0.0000  0.0000  0.0000 </r>
        <r>  0.0000  0.0000  0.0000  0.0004  0.0000  0.0000  0.0000  0.0000  0.0000 </r>
        <r>  0.0000  0.0001  0.0001  0.0005  0.0000  0.0000  0.0000  0.0000  0.0000 </r>
        <r>  0.0030  0.0062  0.0202  0.0019  0.0000  0.0001  0.0013  0.0002  0.0000 </r>
        <r>  0.0000  0.0000  0.0000  0.0005  0.0000  0.0000  0.0000  0.0000  0.0000 </r>
        <r>  0.0001  0.0001  0.0001  0.0000  0.0000  0.0000  0.0000  0.0000  0.0000 </r>
        <r>  0.0014  0.0008  0.0001  0.0012  0.0000  0.0001  0.0006  0.0002  0.0000 </r>
        <r>  0.0000  0.0010  0.0039  0.0048  0.0001  0.0003  0.0001  0.0004  0.0007 </r>
        <r>  0.0003  0.0043  0.0003  0.0205  0.0001  0.0000  0.0002  0.0006  0.0001 </r>
        <r>  0.0005  0.0013  0.0051  0.0122  0.0002  0.0002  0.0000  0.0005  0.0010 </r>
       </set>
       <set comment="band 56">
        <r>  0.0001  0.0010  0.0007  0.0218  0.0025  0.0001  0.0000  0.0003  0.0001 </r>
        <r>  0.0000  0.0007  0.0048  0.0130  0.0007  0.0002  0.0000  0.0000  0.0000 </r>
        <r>  0.0001  0.0027  0.0162  0.0099  0.0006  0.0007  0.0001  0.0000  0.0001 </r>
        <r>  0.0002  0.0024  0.0011  0.0019  0.0003  0.0001  0.0000  0.0000  0.0000 </r>
        <r>  0.0002  0.0023  0.0088  0.0001  0.0002  0.0007  0.0000  0.0002  0.0000 </r>
        <r>  0.0000  0.0009  0.0002  0.0031  0.0002  0.0000  0.0000  0.0000  0.0002 </r>
        <r>  0.0002  0.0006  0.0000  0.0015  0.0000  0.0000  0.0000  0.0000  0.0000 </r>
        <r>  0.0001  0.0002  0.0002  0.0021  0.0000  0.0000  0.0000  0.0000  0.0000 </r>
        <r>  0.0011  0.0119  0.0003  0.0004  0.0004  0.0002  0.0006  0.0001  0.0005 </r>
        <r>  0.0001  0.0031  0.0000  0.0002  0.0000  0.0000  0.0000  0.0000  0.0002 </r>
        <r>  0.0003  0.0001  0.0002  0.0010  0.0002  0.0000  0.0000  0.0001  0.0000 </r>
        <r>  0.0039  0.0004  0.0638  0.0176  0.0002  0.0015  0.0019  0.0036  0.0014 </r>
        <r>  0.0003  0.0092  0.0009  0.0016  0.0001  0.0000  0.0001  0.0004  0.0015 </r>
        <r>  0.0000  0.0014  0.0049  0.1529  0.0030  0.0000  0.0006  0.0059  0.0000 </r>
        <r>  0.0043  0.0007  0.0336  0.0431  0.0021  0.0017  0.0000  0.0027  0.0022 </r>
       </set>
       <set comment="band 57">
        <r>  0.0013  0.0044  0.0009  0.0000  0.0000  0.0001  0.0001  0.0000  0.0000 </r>
        <r>  0.0000  0.0001  0.0003  0.0014  0.0001  0.0000  0.0000  0.0000  0.0001 </r>
        <r>  0.0000  0.0003  0.0013  0.0082  0.0004  0.0001  0.0000  0.0000  0.0000 </r>
        <r>  0.0000  0.0003  0.0000  0.0000  0.0000  0.0001  0.0000  0.0000  0.0000 </r>
        <r>  0.0000  0.0031  0.0073  0.0037  0.0007  0.0000  0.0001  0.0008  0.0001 </r>
        <r>  0.0087  0.0740  0.0060  0.0494  0.0040  0.0009  0.0010  0.0001  0.0045 </r>
        <r>  0.0002  0.0594  0.0002  0.0021  0.0024  0.0001  0.0001  0.0000  0.0011 </r>
        <r>  0.0056  0.0222  0.0019  0.0181  0.0001  0.0000  0.0008  0.0000  0.0010 </r>
        <r>  0.0000  0.0003  0.0001  0.0001  0.0000  0.0001  0.0000  0.0000  0.0000 </r>
        <r>  0.0115  0.1155  0.0037  0.0054  0.0030  0.0008  0.0013  0.0001  0.0034 </r>
        <r>  0.0002  0.0047  0.0004  0.0013  0.0014  0.0002  0.0001  0.0000  0.0000 </r>
        <r>  0.0003  0.0001  0.0027  0.0005  0.0000  0.0001  0.0001  0.0002  0.0000 </r>
        <r>  0.0007  0.0000  0.0060  0.0076  0.0002  0.0002  0.0000  0.0003  0.0001 </r>
        <r>  0.0000  0.0005  0.0001  0.0082  0.0003  0.0000  0.0000  0.0004  0.0001 </r>
        <r>  0.0017  0.0039  0.0013  0.0029  0.0001  0.0000  0.0001  0.0001  0.0000 </r>
       </set>
       <set comment="band 58">
        <r>  0.0059  0.0212  0.0026  0.0006  0.0006  0.0005  0.0004  0.0001  0.0002 </r>
        <r>  0.0000  0.0003  0.0006  0.0033  0.0004  0.0000  0.0000  0.0000  0.0004 </r>
        <r>  0.0001  0.0004  0.0182  0.0422  0.0024  0.0011  0.0000  0.0002  0.0002 </r>
        <r>  0.0000  0.0009  0.0001  0.0000  0.0001  0.0001  0.0000  0.0000  0.0001 </r>
        <r>  0.0000  0.0196  0.0471  0.0033  0.0025  0.0001  0.0001  0.0033  0.0007 </r>
        <r>  0.0045  0.0200  0.0005  0.0000  0.0003  0.0002  0.0008  0.0001  0.0003 </r>
        <r>  0.0038  0.0144  0.0015  0.0113  0.0017  0.0002  0.0004  0.0001  0.0000 </r>
        <r>  0.0000  0.0414  0.0014  0.0181  0.0015  0.0003  0.0001  0.0001  0.0012 </r>
        <r>  0.0000  0.0005  0.0003  0.0002  0.0000  0.0001  0.0000  0.0000  0.0000 </r>
        <r>  0.0067  0.0094  0.0016  0.0253  0.0004  0.0001  0.0006  0.0002  0.0000 </r>
        <r>  0.0048  0.0000  0.0046  0.0205  0.0009  0.0001  0.0004  0.0010  0.0007 </r>
        <r>  0.0002  0.0002  0.0028  0.0003  0.0000  0.0001  0.0002  0.0002  0.0000 </r>
        <r>  0.0021  0.0028  0.0206  0.0352  0.0005  0.0006  0.0000  0.0015  0.0014 </r>
        <r>  0.0000  0.0008  0.0000  0.0089  0.0005  0.0001  0.0000  0.0006  0.0005 </r>
        <r>  0.0052  0.0159  0.0004  0.0031  0.0000  0.0000  0.0003  0.0001  0.0006 </r>
       </set>
       <set comment="band 59">
        <r>  0.0057  0.0188  0.0013  0.0025  0.0022  0.0002  0.0005  0.0000  0.0001 </r>
        <r>  0.0034  0.0086  0.0037  0.1013  0.0080  0.0004  0.0005  0.0001  0.0001 </r>
        <r>  0.0000  0.0024  0.0004  0.0002  0.0007  0.0001  0.0000  0.0007  0.0001 </r>
        <r>  0.0006  0.0660  0.0732  0.0156  0.0035  0.0000  0.0050  0.0017  0.0000 </r>
        <r>  0.0000  0.0000  0.0034  0.0001  0.0000  0.0003  0.0000  0.0003  0.0000 </r>
        <r>  0.0000  0.0000  0.0000  0.0000  0.0000  0.0000  0.0000  0.0000  0.0000 </r>
        <r>  0.0000  0.0000  0.0000  0.0000  0.0000  0.0000  0.0000  0.0000  0.0000 </r>
        <r>  0.0000  0.0001  0.0000  0.0000  0.0000  0.0000  0.0000  0.0000  0.0000 </r>
        <r>  0.0020  0.0137  0.0652  0.0078  0.0000  0.0004  0.0041  0.0017  0.0010 </r>
        <r>  0.0000  0.0000  0.0000  0.0000  0.0000  0.0000  0.0000  0.0000  0.0000 </r>
        <r>  0.0000  0.0000  0.0000  0.0000  0.0000  0.0000  0.0000  0.0000  0.0000 </r>
        <r>  0.0072  0.0215  0.0020  0.0035  0.0003  0.0000  0.0004  0.0000  0.0014 </r>
        <r>  0.0001  0.0002  0.0015  0.0024  0.0001  0.0002  0.0000  0.0000  0.0000 </r>
        <r>  0.0000  0.0000  0.0009  0.0075  0.0001  0.0000  0.0002  0.0012  0.0004 </r>
        <r>  0.0006  0.0016  0.0015  0.0007  0.0002  0.0001  0.0000  0.0002  0.0000 </r>
       </set>
       <set comment="band 60">
        <r>  0.0027  0.0072  0.0000  0.0020  0.0014  0.0001  0.0005  0.0000  0.0003 </r>
        <r>  0.0001  0.0000  0.0000  0.0000  0.0000  0.0000  0.0000  0.0000  0.0003 </r>
        <r>  0.0017  0.0002  0.0285  0.0178  0.0012  0.0013  0.0014  0.0008  0.0002 </r>
        <r>  0.0000  0.0000  0.0002  0.0002  0.0000  0.0000  0.0000  0.0000  0.0000 </r>
        <r>  0.0006  0.0446  0.0296  0.0085  0.0002  0.0002  0.0009  0.0011  0.0000 </r>
        <r>  0.0001  0.0000  0.0001  0.0058  0.0001  0.0000  0.0001  0.0000  0.0001 </r>
        <r>  0.0023  0.0000  0.0009  0.0100  0.0012  0.0002  0.0000  0.0004  0.0015 </r>
        <r>  0.0081  0.0185  0.0101  0.0868  0.0048  0.0009  0.0005  0.0024  0.0026 </r>
        <r>  0.0000  0.0000  0.0001  0.0000  0.0000  0.0000  0.0000  0.0000  0.0000 </r>
        <r>  0.0038  0.0044  0.0001  0.0229  0.0004  0.0000  0.0003  0.0001  0.0026 </r>
        <r>  0.0059  0.0347  0.0152  0.0938  0.0010  0.0003  0.0002  0.0014  0.0024 </r>
        <r>  0.0001  0.0002  0.0001  0.0000  0.0000  0.0000  0.0000  0.0000  0.0000 </r>
        <r>  0.0003  0.0001  0.0010  0.0051  0.0002  0.0001  0.0000  0.0013  0.0012 </r>
        <r>  0.0000  0.0006  0.0000  0.0011  0.0003  0.0000  0.0001  0.0000  0.0001 </r>
        <r>  0.0002  0.0007  0.0012  0.0021  0.0001  0.0000  0.0001  0.0000  0.0001 </r>
       </set>
       <set comment="band 61">
        <r>  0.0011  0.0025  0.0000  0.0000  0.0000  0.0005  0.0004  0.0000  0.0000 </r>
        <r>  0.0023  0.0003  0.0001  0.0003  0.0001  0.0000  0.0003  0.0001  0.0000 </r>
        <r>  0.0023  0.0000  0.0001  0.0003  0.0000  0.0000  0.0000  0.0006  0.0000 </r>
        <r>  0.0019  0.0000  0.0000  0.0000  0.0001  0.0001  0.0000  0.0000  0.0000 </r>
        <r>  0.0022  0.0001  0.0001  0.0001  0.0000  0.0005  0.0000  0.0000  0.0000 </r>
        <r>  0.0031  0.0005  0.0000  0.0001  0.0001  0.0001  0.0009  0.0001  0.0000 </r>
        <r>  0.0032  0.0000  0.0000  0.0011  0.0000  0.0000  0.0010  0.0001  0.0000 </r>
        <r>  0.0024  0.0001  0.0001  0.0010  0.0000  0.0000  0.0010  0.0005  0.0000 </r>
        <r>  0.0019  0.0002  0.0002  0.0004  0.0000  0.0000  0.0002  0.0001  0.0002 </r>
        <r>  0.0019  0.0000  0.0000  0.0001  0.0000  0.0000  0.0005  0.0000  0.0000 </r>
        <r>  0.0037  0.0000  0.0000  0.0000  0.0001  0.0000  0.0002  0.0001  0.0000 </r>
        <r>  0.0016  0.0005  0.0004  0.0001  0.0001  0.0000  0.0000  0.0002  0.0001 </r>
        <r>  0.0028  0.0007  0.0000  0.0003  0.0000  0.0000  0.0001  0.0006  0.0000 </r>
        <r>  0.0022  0.0000  0.0001  0.0000  0.0000  0.0000  0.0000  0.0000  0.0000 </r>
        <r>  0.0019  0.0006  0.0003  0.0005  0.0000  0.0000  0.0002  0.0003  0.0001 </r>
       </set>
       <set comment="band 62">
        <r>  0.0010  0.0017  0.0000  0.0003  0.0000  0.0004  0.0004  0.0000  0.0001 </r>
        <r>  0.0027  0.0005  0.0002  0.0000  0.0000  0.0000  0.0005  0.0002  0.0001 </r>
        <r>  0.0014  0.0001  0.0005  0.0005  0.0000  0.0000  0.0001  0.0004  0.0000 </r>
        <r>  0.0024  0.0001  0.0000  0.0001  0.0002  0.0002  0.0000  0.0001  0.0001 </r>
        <r>  0.0005  0.0005  0.0001  0.0005  0.0001  0.0001  0.0000  0.0000  0.0000 </r>
        <r>  0.0046  0.0011  0.0000  0.0000  0.0001  0.0002  0.0019  0.0002  0.0000 </r>
        <r>  0.0034  0.0002  0.0000  0.0006  0.0000  0.0001  0.0017  0.0003  0.0000 </r>
        <r>  0.0014  0.0005  0.0004  0.0038  0.0002  0.0000  0.0013  0.0009  0.0001 </r>
        <r>  0.0024  0.0001  0.0003  0.0003  0.0000  0.0001  0.0002  0.0002  0.0003 </r>
        <r>  0.0024  0.0000  0.0000  0.0005  0.0000  0.0001  0.0010  0.0001  0.0000 </r>
        <r>  0.0011  0.0013  0.0001  0.0023  0.0000  0.0000  0.0000  0.0000  0.0000 </r>
        <r>  0.0018  0.0009  0.0007  0.0003  0.0001  0.0000  0.0000  0.0005  0.0002 </r>
        <r>  0.0009  0.0000  0.0000  0.0012  0.0000  0.0000  0.0000  0.0002  0.0001 </r>
        <r>  0.0019  0.0001  0.0000  0.0002  0.0000  0.0000  0.0001  0.0000  0.0000 </r>
        <r>  0.0013  0.0008  0.0000  0.0000  0.0000  0.0001  0.0001  0.0003  0.0001 </r>
       </set>
       <set comment="band 63">
        <r>  0.0000  0.0000  0.0003  0.0037  0.0000  0.0000  0.0001  0.0001  0.0000 </r>
        <r>  0.0006  0.0001  0.0001  0.0019  0.0000  0.0002  0.0002  0.0001  0.0003 </r>
        <r>  0.0005  0.0002  0.0001  0.0006  0.0000  0.0002  0.0001  0.0012  0.0001 </r>
        <r>  0.0025  0.0007  0.0002  0.0012  0.0004  0.0007  0.0001  0.0002  0.0003 </r>
        <r>  0.0015  0.0004  0.0002  0.0009  0.0005  0.0013  0.0001  0.0000  0.0004 </r>
        <r>  0.0012  0.0008  0.0000  0.0008  0.0004  0.0000  0.0007  0.0003  0.0004 </r>
        <r>  0.0000  0.0013  0.0001  0.0010  0.0001  0.0000  0.0002  0.0000  0.0002 </r>
        <r>  0.0004  0.0034  0.0000  0.0007  0.0002  0.0000  0.0001  0.0001  0.0000 </r>
        <r>  0.0014  0.0004  0.0000  0.0000  0.0001  0.0002  0.0002  0.0003  0.0001 </r>
        <r>  0.0007  0.0002  0.0000  0.0003  0.0001  0.0000  0.0002  0.0000  0.0003 </r>
        <r>  0.0018  0.0008  0.0001  0.0005  0.0006  0.0001  0.0003  0.0004  0.0006 </r>
        <r>  0.0003  0.0000  0.0017  0.0024  0.0000  0.0000  0.0000  0.0003  0.0000 </r>
        <r>  0.0014  0.0000  0.0001  0.0002  0.0000  0.0001  0.0004  0.0002  0.0000 </r>
        <r>  0.0000  0.0000  0.0002  0.0037  0.0000  0.0000  0.0000  0.0004  0.0000 </r>
        <r>  0.0003  0.0007  0.0001  0.0029  0.0000  0.0000  0.0000  0.0004  0.0000 </r>
       </set>
       <set comment="band 64">
        <r>  0.0017  0.0029  0.0010  0.0001  0.0000  0.0004  0.0013  0.0000  0.0001 </r>
        <r>  0.0013  0.0006  0.0012  0.0007  0.0006  0.0001  0.0003  0.0001  0.0001 </r>
        <r>  0.0017  0.0003  0.0023  0.0002  0.0003  0.0000  0.0000  0.0008  0.0002 </r>
        <r>  0.0004  0.0003  0.0029  0.0001  0.0000  0.0001  0.0004  0.0000  0.0000 </r>
        <r>  0.0002  0.0005  0.0030  0.0000  0.0000  0.0002  0.0001  0.0003  0.0000 </r>
        <r>  0.0000  0.0000  0.0000  0.0000  0.0000  0.0000  0.0000  0.0000  0.0000 </r>
        <r>  0.0000  0.0000  0.0001  0.0000  0.0000  0.0000  0.0000  0.0000  0.0000 </r>
        <r>  0.0000  0.0000  0.0000  0.0000  0.0000  0.0000  0.0001  0.0000  0.0000 </r>
        <r>  0.0004  0.0000  0.0046  0.0000  0.0000  0.0000  0.0002  0.0000  0.0000 </r>
        <r>  0.0000  0.0000  0.0000  0.0000  0.0000  0.0000  0.0000  0.0000  0.0000 </r>
        <r>  0.0000  0.0001  0.0007  0.0000  0.0000  0.0000  0.0000  0.0000  0.0000 </r>
        <r>  0.0012  0.0017  0.0008  0.0000  0.0000  0.0000  0.0001  0.0006  0.0008 </r>
        <r>  0.0003  0.0000  0.0036  0.0010  0.0001  0.0000  0.0001  0.0001  0.0000 </r>
        <r>  0.0036  0.0001  0.0028  0.0001  0.0001  0.0000  0.0012  0.0002  0.0008 </r>
        <r>  0.0011  0.0014  0.0006  0.0005  0.0000  0.0001  0.0001  0.0009  0.0002 </r>
       </set>
      </set>
     </set>
    </set>
   </array>
  </projected>
 </calculation>
 <structure name="finalpos" >
  <crystal>
   <varray name="basis" >
    <v>      28.79971922       0.00000000       0.00000000 </v>
    <v>       0.00000000      28.79971922       0.00000000 </v>
    <v>       0.00000000       0.00000000      28.79971922 </v>
   </varray>
   <i name="volume">  23887.17332963 </i>
   <varray name="rec_basis" >
    <v>       0.03472256       0.00000000       0.00000000 </v>
    <v>       0.00000000       0.03472256       0.00000000 </v>
    <v>       0.00000000       0.00000000       0.03472256 </v>
   </varray>
  </crystal>
  <varray name="positions" >
   <v>       0.57095419       0.53347709       0.35550347 </v>
   <v>       0.65191686       0.57980164       0.37898441 </v>
   <v>       0.51141220       0.59276334       0.39949299 </v>
   <v>       0.71967250       0.52385562       0.41466156 </v>
   <v>       0.46285478       0.55293224       0.47312415 </v>
   <v>       0.23352042       0.30301605       0.54366949 </v>
   <v>       0.32635628       0.32794468       0.53023006 </v>
   <v>       0.30861769       0.42154705       0.54056768 </v>
   <v>       0.70875139       0.50641288       0.50781893 </v>
   <v>       0.19529706       0.38420965       0.56211015 </v>
   <v>       0.38652582       0.46167671       0.51028758 </v>
   <v>       0.71032253       0.59262650       0.54992984 </v>
   <v>       0.52152030       0.52742732       0.54255563 </v>
   <v>       0.63828915       0.58139019       0.61142660 </v>
   <v>       0.55398884       0.61091906       0.57963745 </v>
  </varray>
 </structure>
</modeling>
