
                                 *****************
                                 * O   R   C   A *
                                 *****************

                                            #,                                       
                                            ###                                      
                                            ####                                     
                                            #####                                    
                                            ######                                   
                                           ########,                                 
                                     ,,################,,,,,                         
                               ,,#################################,,                 
                          ,,##########################################,,             
                       ,#########################################, ''#####,          
                    ,#############################################,,   '####,        
                  ,##################################################,,,,####,       
                ,###########''''           ''''###############################       
              ,#####''   ,,,,##########,,,,          '''####'''          '####       
            ,##' ,,,,###########################,,,                        '##       
           ' ,,###''''                  '''############,,,                           
         ,,##''                                '''############,,,,        ,,,,,,###''
      ,#''                                            '''#######################'''  
     '                                                          ''''####''''         
             ,#######,   #######,   ,#######,      ##                                
            ,#'     '#,  ##    ##  ,#'     '#,    #''#        ######   ,####,        
            ##       ##  ##   ,#'  ##            #'  '#       #        #'  '#        
            ##       ##  #######   ##           ,######,      #####,   #    #        
            '#,     ,#'  ##    ##  '#,     ,#' ,#      #,         ##   #,  ,#        
             '#######'   ##     ##  '#######'  #'      '#     #####' # '####'        



                  #######################################################
                  #                        -***-                        #
                  #          Department of theory and spectroscopy      #
                  #    Directorship and core code : Frank Neese         #
                  #        Max Planck Institute fuer Kohlenforschung    #
                  #                Kaiser Wilhelm Platz 1               #
                  #                 D-45470 Muelheim/Ruhr               #
                  #                      Germany                        #
                  #                                                     #
                  #                  All rights reserved                #
                  #                        -***-                        #
                  #######################################################


                         Program Version 5.0.1 -  RELEASE  -


 With contributions from (in alphabetic order):
   Daniel Aravena         : Magnetic Suceptibility
   Michael Atanasov       : Ab Initio Ligand Field Theory (pilot matlab implementation)
   Alexander A. Auer      : GIAO ZORA, VPT2 properties, NMR spectrum
   Ute Becker             : Parallelization
   Giovanni Bistoni       : ED, misc. LED, open-shell LED, HFLD
   Martin Brehm           : Molecular dynamics
   Dmytro Bykov           : SCF Hessian
   Vijay G. Chilkuri      : MRCI spin determinant printing, contributions to CSF-ICE
   Dipayan Datta          : RHF DLPNO-CCSD density
   Achintya Kumar Dutta   : EOM-CC, STEOM-CC
   Dmitry Ganyushin       : Spin-Orbit,Spin-Spin,Magnetic field MRCI
   Miquel Garcia          : C-PCM and meta-GGA Hessian, CC/C-PCM, Gaussian charge scheme
   Yang Guo               : DLPNO-NEVPT2, F12-NEVPT2, CIM, IAO-localization
   Andreas Hansen         : Spin unrestricted coupled pair/coupled cluster methods
   Benjamin Helmich-Paris : MC-RPA, TRAH-SCF, COSX integrals
   Lee Huntington         : MR-EOM, pCC
   Robert Izsak           : Overlap fitted RIJCOSX, COSX-SCS-MP3, EOM
   Marcus Kettner         : VPT2
   Christian Kollmar      : KDIIS, OOCD, Brueckner-CCSD(T), CCSD density, CASPT2, CASPT2-K
   Simone Kossmann        : Meta GGA functionals, TD-DFT gradient, OOMP2, MP2 Hessian
   Martin Krupicka        : Initial AUTO-CI
   Lucas Lang             : DCDCAS
   Marvin Lechner         : AUTO-CI (C++ implementation), FIC-MRCC
   Dagmar Lenk            : GEPOL surface, SMD
   Dimitrios Liakos       : Extrapolation schemes; Compound Job, initial MDCI parallelization
   Dimitrios Manganas     : Further ROCIS development; embedding schemes
   Dimitrios Pantazis     : SARC Basis sets
   Anastasios Papadopoulos: AUTO-CI, single reference methods and gradients
   Taras Petrenko         : DFT Hessian,TD-DFT gradient, ASA, ECA, R-Raman, ABS, FL, XAS/XES, NRVS
   Peter Pinski           : DLPNO-MP2, DLPNO-MP2 Gradient
   Christoph Reimann      : Effective Core Potentials
   Marius Retegan         : Local ZFS, SOC
   Christoph Riplinger    : Optimizer, TS searches, QM/MM, DLPNO-CCSD(T), (RO)-DLPNO pert. Triples
   Tobias Risthaus        : Range-separated hybrids, TD-DFT gradient, RPA, STAB
   Michael Roemelt        : Original ROCIS implementation
   Masaaki Saitow         : Open-shell DLPNO-CCSD energy and density
   Barbara Sandhoefer     : DKH picture change effects
   Avijit Sen             : IP-ROCIS
   Kantharuban Sivalingam : CASSCF convergence, NEVPT2, FIC-MRCI
   Bernardo de Souza      : ESD, SOC TD-DFT
   Georgi Stoychev        : AutoAux, RI-MP2 NMR, DLPNO-MP2 response
   Willem Van den Heuvel  : Paramagnetic NMR
   Boris Wezisla          : Elementary symmetry handling
   Frank Wennmohs         : Technical directorship


 We gratefully acknowledge several colleagues who have allowed us to
 interface, adapt or use parts of their codes:
   Stefan Grimme, W. Hujo, H. Kruse, P. Pracht,  : VdW corrections, initial TS optimization,
                  C. Bannwarth, S. Ehlert          DFT functionals, gCP, sTDA/sTD-DF
   Ed Valeev, F. Pavosevic, A. Kumar             : LibInt (2-el integral package), F12 methods
   Garnet Chan, S. Sharma, J. Yang, R. Olivares  : DMRG
   Ulf Ekstrom                                   : XCFun DFT Library
   Mihaly Kallay                                 : mrcc  (arbitrary order and MRCC methods)
   Jiri Pittner, Ondrej Demel                    : Mk-CCSD
   Frank Weinhold                                : gennbo (NPA and NBO analysis)
   Christopher J. Cramer and Donald G. Truhlar   : smd solvation model
   Lars Goerigk                                  : TD-DFT with DH, B97 family of functionals
   V. Asgeirsson, H. Jonsson                     : NEB implementation
   FAccTs GmbH                                   : IRC, NEB, NEB-TS, DLPNO-Multilevel, CI-OPT
                                                   MM, QMMM, 2- and 3-layer-ONIOM, Crystal-QMMM,
                                                   LR-CPCM, SF, NACMEs, symmetry and pop. for TD-DFT,
                                                   nearIR, NL-DFT gradient (VV10), updates on ESD,
                                                   ML-optimized integration grids
   S Lehtola, MJT Oliveira, MAL Marques          : LibXC Library
   Liviu Ungur et al                             : ANISO software


 Your calculation uses the libint2 library for the computation of 2-el integrals
 For citations please refer to: http://libint.valeyev.net

 Your ORCA version has been built with support for libXC version: 5.1.0
 For citations please refer to: https://tddft.org/programs/libxc/

 This ORCA versions uses:
   CBLAS   interface :  Fast vector & matrix operations
   LAPACKE interface :  Fast linear algebra routines
   SCALAPACK package :  Parallel linear algebra routines
   Shared memory     :  Shared parallel matrices
   BLAS/LAPACK       :  OpenBLAS 0.3.15  USE64BITINT DYNAMIC_ARCH NO_AFFINITY SkylakeX SINGLE_THREADED
        Core in use  :  SkylakeX
   Copyright (c) 2011-2014, The OpenBLAS Project




***************************************
The coordinates will be read from file: 040-FF.xyz
***************************************


Your calculation utilizes the atom-pairwise dispersion correction
with the Becke-Johnson damping scheme (D3BJ)
Cite in your paper:
S.Grimme, S.Ehrlich, L.Goerigk, J Comput Chem, (2011), 32, 1456–1465 
S.Grimme, J.Antony, S.Ehrlich and H.Krieg, J.Chem.Phys., 132, (2010), 154104 
   

================================================================================

----- Orbital basis set information -----
Your calculation utilizes the basis: def2-TZVP
   F. Weigend and R. Ahlrichs, Phys. Chem. Chem. Phys. 7, 3297 (2005).

----- AuxJ basis set information -----
Your calculation utilizes the auxiliary basis: def2/J
   F. Weigend, Phys. Chem. Chem. Phys. 8, 1057 (2006).

----- AuxC basis set information -----
Your calculation utilizes the auxiliary basis: def2-TZVP/C
  H-La, Hf-Rn : A. Hellweg, C. Hattig, S. Hofener and W. Klopper, Theor. Chem. Acc. 117, 587 (2007).
        Ce-Lu : J. Chmela and M. E. Harding, Mol. Phys. (2018).

================================================================================
                                        WARNINGS
                       Please study these warnings very carefully!
================================================================================


WARNING: Geometry Optimization
  ===> : Switching off AutoStart
         For restart on a previous wavefunction, please use MOREAD

INFO   : the flag for use of the SHARK integral package has been found!

================================================================================
                                       INPUT FILE
================================================================================
NAME = input.inp
|  1> ! B3LYP def2-TZVP def2-TZVP/C def2/J RIJCOSX D3BJ 
|  2> ! Opt 
|  3> %pal nprocs 48 end 
|  4> %geom Constraints { D 12 1 0 5 040 C } end end 
|  5> * xyzfile 0 1 040-FF.xyz 
|  6> 
|  7>                          ****END OF INPUT****
================================================================================

                       *****************************
                       * Geometry Optimization Run *
                       *****************************

Geometry optimization settings:
Update method            Update   .... BFGS
Choice of coordinates    CoordSys .... Z-matrix Internals
Initial Hessian          InHess   .... Almoef's Model

Convergence Tolerances:
Energy Change            TolE     ....  5.0000e-06 Eh
Max. Gradient            TolMAXG  ....  3.0000e-04 Eh/bohr
RMS Gradient             TolRMSG  ....  1.0000e-04 Eh/bohr
Max. Displacement        TolMAXD  ....  4.0000e-03 bohr
RMS Displacement         TolRMSD  ....  2.0000e-03 bohr
Strict Convergence                ....  False
------------------------------------------------------------------------------
                        ORCA OPTIMIZATION COORDINATE SETUP
------------------------------------------------------------------------------

The optimization will be done in new redundant internal coordinates
Making redundant internal coordinates   ...  (new redundants) done
Evaluating the initial hessian          ...  (Almloef) done
Evaluating the coordinates              ...  done
Calculating the B-matrix                .... done
Calculating the G-matrix                .... done
Diagonalizing the G-matrix              .... done
Imposing constraints:
 Iter   0:  RMS(Cart)=    0.0000000048 RMS(Int)=    0.0000000023
CONVERGED
Small eigenvalue found = 2.541e-03
Small eigenvalue found = 1.228e-02
Small eigenvalue found = 1.559e-02
The first mode is                       ....   53
The number of degrees of freedom        ....   69
Storing new coordinates                 .... done

    -----------------------------------------------------------------
                    Redundant Internal Coordinates


    -----------------------------------------------------------------
         Definition                    Initial Value    Approx d2E/dq
    -----------------------------------------------------------------
      1. B(C   1,N   0)                  1.4549         0.440829   
      2. B(C   3,C   2)                  1.3966         0.609919   
      3. B(C   4,C   3)                  1.3979         0.606832   
      4. B(C   5,N   0)                  1.4238         0.494343   
      5. B(C   5,C   4)                  1.4013         0.599460   
      6. B(C   6,C   2)                  1.3971         0.608810   
      7. B(C   7,C   5)                  1.4082         0.584468   
      8. B(C   7,C   6)                  1.3988         0.604833   
      9. B(H   8,C   2)                  1.0828         0.369722   
     10. B(H   9,C   3)                  1.0826         0.370011   
     11. B(H  10,C   4)                  1.0835         0.368759   
     12. B(H  11,C   6)                  1.0814         0.371624   
     13. B(C  12,C   1)                  1.5221         0.384645   
     14. B(C  13,C  12)                  1.4053         0.590696   
     15. B(H  14,C  13)                  1.0822         0.370555   
     16. B(C  15,C  13)                  1.3968         0.609409   
     17. B(H  16,C  15)                  1.0808         0.372439   
     18. B(C  17,C  15)                  1.3933         0.617178   
     19. B(H  18,C  17)                  1.0802         0.373318   
     20. B(C  19,C  17)                  1.3940         0.615720   
     21. B(H  20,C  19)                  1.0826         0.370082   
     22. B(C  22,C  12)                  1.4120         0.576242   
     23. B(C  22,C  19)                  1.3994         0.603653   
     24. B(C  22,H  21)                  1.0776         0.376929   
     25. B(H  23,C   7)                  1.0802         0.373287   
     26. B(H  24,C   1)                  1.1104         0.334131   
     27. A(C   1,N   0,C   5)          128.8602         0.387495   
     28. A(N   0,C   1,C  12)          117.3897         0.373355   
     29. A(N   0,C   1,H  24)          106.3331         0.327222   
     30. A(C  12,C   1,H  24)          107.4766         0.321900   
     31. A(C   3,C   2,H   8)          120.0056         0.353506   
     32. A(C   3,C   2,C   6)          119.9722         0.431374   
     33. A(C   6,C   2,H   8)          120.0218         0.353397   
     34. A(C   4,C   3,H   9)          120.0778         0.353249   
     35. A(C   2,C   3,C   4)          120.0677         0.431122   
     36. A(C   2,C   3,H   9)          119.8524         0.353552   
     37. A(C   3,C   4,C   5)          120.4611         0.429785   
     38. A(C   3,C   4,H  10)          119.2322         0.353046   
     39. A(C   5,C   4,H  10)          120.2988         0.352317   
     40. A(N   0,C   5,C   7)          122.4674         0.409811   
     41. A(C   4,C   5,C   7)          119.1571         0.426901   
     42. A(N   0,C   5,C   4)          118.3751         0.411655   
     43. A(C   2,C   6,H  11)          119.9143         0.353704   
     44. A(C   7,C   6,H  11)          119.9814         0.353311   
     45. A(C   2,C   6,C   7)          120.1042         0.430725   
     46. A(C   5,C   7,C   6)          120.2044         0.427584   
     47. A(C   5,C   7,H  23)          120.6830         0.351536   
     48. A(C   6,C   7,H  23)          119.1104         0.353579   
     49. A(C   1,C  12,C  13)          117.0786         0.395349   
     50. A(C   1,C  12,C  22)          124.5634         0.393636   
     51. A(C  13,C  12,C  22)          118.3314         0.424698   
     52. A(C  12,C  13,H  14)          120.3189         0.351729   
     53. A(C  12,C  13,C  15)          120.8607         0.428977   
     54. A(H  14,C  13,C  15)          118.8194         0.353590   
     55. A(C  13,C  15,H  16)          120.0555         0.353894   
     56. A(C  13,C  15,C  17)          120.1261         0.432368   
     57. A(H  16,C  15,C  17)          119.8180         0.354655   
     58. A(C  15,C  17,H  18)          119.9555         0.354796   
     59. A(C  15,C  17,C  19)          119.9615         0.433170   
     60. A(H  18,C  17,C  19)          120.0819         0.354654   
     61. A(C  17,C  19,C  22)          120.1396         0.431448   
     62. A(H  20,C  19,C  22)          120.1872         0.352946   
     63. A(C  17,C  19,H  20)          119.6730         0.354131   
     64. A(C  12,C  22,C  19)          120.5441         0.426350   
     65. A(C  12,C  22,H  21)          121.6335         0.351270   
     66. A(C  19,C  22,H  21)          117.8212         0.354044   
     67. D(C  12,C   1,N   0,C   5)     40.0000         0.013941 C 
     68. D(H  24,C   1,N   0,C   5)    -80.2843         0.013941   
     69. D(C   4,C   3,C   2,H   8)   -179.3695         0.025692   
     70. D(C   4,C   3,C   2,C   6)      0.8579         0.025692   
     71. D(H   9,C   3,C   2,H   8)      0.0976         0.025692   
     72. D(H   9,C   3,C   2,C   6)   -179.6750         0.025692   
     73. D(H  10,C   4,C   3,H   9)     -0.0243         0.025418   
     74. D(C   5,C   4,C   3,H   9)   -179.0054         0.025418   
     75. D(C   5,C   4,C   3,C   2)      0.4605         0.025418   
     76. D(H  10,C   4,C   3,C   2)    179.4416         0.025418   
     77. D(N   0,C   5,C   4,C   3)    178.3564         0.024771   
     78. D(C   7,C   5,N   0,C   1)     17.4203         0.017549   
     79. D(C   7,C   5,C   4,C   3)     -1.8665         0.024771   
     80. D(N   0,C   5,C   4,H  10)     -0.6138         0.024771   
     81. D(C   4,C   5,N   0,C   1)   -162.8105         0.017549   
     82. D(C   7,C   5,C   4,H  10)    179.1633         0.024771   
     83. D(C   7,C   6,C   2,C   3)     -0.7429         0.025593   
     84. D(C   7,C   6,C   2,H   8)    179.4846         0.025593   
     85. D(H  11,C   6,C   2,C   3)    179.3602         0.025593   
     86. D(H  11,C   6,C   2,H   8)     -0.4123         0.025593   
     87. D(C   6,C   7,C   5,N   0)   -178.2556         0.023486   
     88. D(H  23,C   7,C   6,C   2)    179.8375         0.025241   
     89. D(H  23,C   7,C   5,N   0)      1.2142         0.023486   
     90. D(H  23,C   7,C   5,C   4)   -178.5533         0.023486   
     91. D(C   5,C   7,C   6,C   2)     -0.6845         0.025241   
     92. D(C   6,C   7,C   5,C   4)      1.9769         0.023486   
     93. D(C   5,C   7,C   6,H  11)    179.2124         0.025241   
     94. D(H  23,C   7,C   6,H  11)     -0.2657         0.025241   
     95. D(C  13,C  12,C   1,N   0)   -169.5661         0.010223   
     96. D(C  13,C  12,C   1,H  24)    -49.8842         0.010223   
     97. D(C  22,C  12,C   1,N   0)     12.3468         0.010223   
     98. D(C  22,C  12,C   1,H  24)    132.0288         0.010223   
     99. D(H  14,C  13,C  12,C   1)      0.2141         0.024015   
    100. D(H  14,C  13,C  12,C  22)    178.4244         0.024015   
    101. D(C  15,C  13,C  12,C   1)    179.8596         0.024015   
    102. D(C  15,C  13,C  12,C  22)     -1.9301         0.024015   
    103. D(H  16,C  15,C  13,C  12)   -179.3160         0.025646   
    104. D(H  16,C  15,C  13,H  14)      0.3347         0.025646   
    105. D(C  17,C  15,C  13,C  12)      0.4569         0.025646   
    106. D(C  17,C  15,C  13,H  14)   -179.8924         0.025646   
    107. D(H  18,C  17,C  15,C  13)   -179.5239         0.026343   
    108. D(H  18,C  17,C  15,H  16)      0.2496         0.026343   
    109. D(C  19,C  17,C  15,C  13)      0.8649         0.026343   
    110. D(C  19,C  17,C  15,H  16)   -179.3616         0.026343   
    111. D(H  20,C  19,C  17,C  15)    179.1783         0.026212   
    112. D(H  20,C  19,C  17,H  18)     -0.4324         0.026212   
    113. D(C  22,C  19,C  17,C  15)     -0.6615         0.026212   
    114. D(C  22,C  19,C  17,H  18)    179.7277         0.026212   
    115. D(C  19,C  22,C  12,C   1)   -179.8074         0.022800   
    116. D(H  21,C  22,C  19,C  17)    178.7425         0.025137   
    117. D(H  21,C  22,C  12,C   1)      0.6070         0.022800   
    118. D(H  21,C  22,C  12,C  13)   -177.4579         0.022800   
    119. D(C  12,C  22,C  19,C  17)     -0.8585         0.025137   
    120. D(C  19,C  22,C  12,C  13)      2.1276         0.022800   
    121. D(C  12,C  22,C  19,H  20)    179.3025         0.025137   
    122. D(H  21,C  22,C  19,H  20)     -1.0965         0.025137   
    -----------------------------------------------------------------

Number of atoms                         .... 25
Number of degrees of freedom            .... 122

         *************************************************************
         *                GEOMETRY OPTIMIZATION CYCLE   1            *
         *************************************************************
---------------------------------
CARTESIAN COORDINATES (ANGSTROEM)
---------------------------------
  N     -2.006910   -0.120813    0.149679
  C     -3.039278   -1.146026    0.148247
  C     -1.978120    3.701477    1.963598
  C     -1.071787    3.384914    0.949336
  C     -1.084650    2.112463    0.370591
  C     -2.009705    1.148825    0.793945
  C     -2.886697    2.739987    2.412808
  C     -2.900687    1.464982    1.837553
  H     -1.974055    4.690637    2.404109
  H     -0.365044    4.129848    0.606365
  H     -0.381509    1.884346   -0.421619
  H     -3.581161    2.982906    3.205393
  C     -4.485345   -0.683417    0.040919
  C     -5.483508   -1.646812    0.265297
  H     -5.213974   -2.666866    0.506169
  C     -6.836421   -1.307795    0.189724
  H     -7.593324   -2.056632    0.375555
  C     -7.214137   -0.003023   -0.120591
  H     -8.261128    0.257937   -0.170744
  C     -6.240605    0.961997   -0.373893
  H     -6.539494    1.971061   -0.627634
  H     -4.163355    1.396287   -0.526673
  C     -4.883826    0.626649   -0.303674
  H     -3.608160    0.733092    2.199042
  H     -2.935215   -1.695301    1.107622

----------------------------
CARTESIAN COORDINATES (A.U.)
----------------------------
  NO LB      ZA    FRAG     MASS         X           Y           Z
   0 N     7.0000    0    14.007   -3.792510   -0.228303    0.282853
   1 C     6.0000    0    12.011   -5.743402   -2.165675    0.280146
   2 C     6.0000    0    12.011   -3.738105    6.994778    3.710663
   3 C     6.0000    0    12.011   -2.025384    6.396560    1.793984
   4 C     6.0000    0    12.011   -2.049691    3.991977    0.700316
   5 C     6.0000    0    12.011   -3.797792    2.170964    1.500338
   6 C     6.0000    0    12.011   -5.455066    5.177825    4.559547
   7 C     6.0000    0    12.011   -5.481505    2.768415    3.472472
   8 H     1.0000    0     1.008   -3.730423    8.864019    4.543107
   9 H     1.0000    0     1.008   -0.689833    7.804282    1.145863
  10 H     1.0000    0     1.008   -0.720947    3.560897   -0.796744
  11 H     1.0000    0     1.008   -6.767414    5.636875    6.057315
  12 C     6.0000    0    12.011   -8.476074   -1.291471    0.077326
  13 C     6.0000    0    12.011  -10.362329   -3.112024    0.501339
  14 H     1.0000    0     1.008   -9.852983   -5.039646    0.956522
  15 C     6.0000    0    12.011  -12.918964   -2.471375    0.358526
  16 H     1.0000    0     1.008  -14.349302   -3.886472    0.709696
  17 C     6.0000    0    12.011  -13.632744   -0.005712   -0.227883
  18 H     1.0000    0     1.008  -15.611269    0.487430   -0.322660
  19 C     6.0000    0    12.011  -11.793035    1.817912   -0.706555
  20 H     1.0000    0     1.008  -12.357852    3.724766   -1.186057
  21 H     1.0000    0     1.008   -7.867600    2.638601   -0.995267
  22 C     6.0000    0    12.011   -9.229094    1.184194   -0.573861
  23 H     1.0000    0     1.008   -6.818433    1.385344    4.155586
  24 H     1.0000    0     1.008   -5.546753   -3.203655    2.093102

--------------------------------
INTERNAL COORDINATES (ANGSTROEM)
--------------------------------
 N      0   0   0     0.000000000000     0.00000000     0.00000000
 C      1   0   0     1.454938731550     0.00000000     0.00000000
 C      1   2   0     4.230961145211   129.92854347     0.00000000
 C      3   1   2     1.396560242946    59.22098969   197.45626051
 C      4   3   1     1.397941537258   120.06772043   359.28719920
 C      5   4   3     1.401268525711   120.46112910     0.46048877
 C      3   1   2     1.397055703530    60.76959599    19.01544494
 C      7   3   1     1.398839625632   120.10424071     0.80349364
 H      3   1   2     1.082821685604   178.60693910   254.07441653
 H      4   3   1     1.082609172195   119.85236876   178.75433816
 H      5   4   3     1.083531999300   119.23220056   179.44159500
 H      7   3   1     1.081425411055   119.91427767   180.90657976
 C      2   1   3     1.522050429441   117.38972223    38.46086330
 C     13   2   1     1.405277621080   117.07857880   190.43385692
 H     14  13   2     1.082209244761   120.31892153     0.21408663
 C     14  13   2     1.396788133627   120.86074245   179.85955713
 H     16  14  13     1.080829148700   120.05547624   180.68399642
 C     16  14  13     1.393339793936   120.12614815     0.45692796
 H     18  16  14     1.080187035275   119.95549355   180.47614304
 C     18  16  14     1.393983563552   119.96150897     0.86489970
 H     20  18  16     1.082556696661   119.67301765   179.17832000
 H     20  18  16     2.127655737771   146.73987055     0.36543037
 C     22  20  18     1.077567060846    35.56882864   358.01693502
 H      8   7   3     1.080209901804   119.11042946   179.83745298
 H      2   1   3     1.110374845307   106.33305309   278.17652933

---------------------------
INTERNAL COORDINATES (A.U.)
---------------------------
 N      0   0   0     0.000000000000     0.00000000     0.00000000
 C      1   0   0     2.749435744263     0.00000000     0.00000000
 C      1   2   0     7.995357847710   129.92854347     0.00000000
 C      3   1   2     2.639116388690    59.22098969   197.45626051
 C      4   3   1     2.641726656650   120.06772043   359.28719920
 C      5   4   3     2.648013753678   120.46112910     0.46048877
 C      3   1   2     2.640052673505    60.76959599    19.01544494
 C      7   3   1     2.643423797721   120.10424071     0.80349364
 H      3   1   2     2.046236437663   178.60693910   254.07441653
 H      4   3   1     2.045834845521   119.85236876   178.75433816
 H      5   4   3     2.047578736017   119.23220056   179.44159500
 H      7   3   1     2.043597861158   119.91427767   180.90657976
 C      2   1   3     2.876258473662   117.38972223    38.46086330
 C     13   2   1     2.655589845970   117.07857880   190.43385692
 H     14  13   2     2.045079092197   120.31892153     0.21408663
 C     14  13   2     2.639547039666   120.86074245   179.85955713
 H     16  14  13     2.042471088602   120.05547624   180.68399642
 C     16  14  13     2.633030622032   120.12614815     0.45692796
 H     18  16  14     2.041257670083   119.95549355   180.47614304
 C     18  16  14     2.634247170300   119.96150897     0.86489970
 H     20  18  16     2.045735681132   119.67301765   179.17832000
 H     20  18  16     4.020686651652   146.73987055     0.36543037
 C     22  20  18     2.036306635933    35.56882864   358.01693502
 H      8   7   3     2.041300881560   119.11042946   179.83745298
 H      2   1   3     2.098304363625   106.33305309   278.17652933

---------------------
BASIS SET INFORMATION
---------------------
There are 3 groups of distinct atoms

 Group   1 Type N   : 11s6p2d1f contracted to 5s3p2d1f pattern {62111/411/11/1}
 Group   2 Type C   : 11s6p2d1f contracted to 5s3p2d1f pattern {62111/411/11/1}
 Group   3 Type H   : 5s1p contracted to 3s1p pattern {311/1}

Atom   0N    basis set group =>   1
Atom   1C    basis set group =>   2
Atom   2C    basis set group =>   2
Atom   3C    basis set group =>   2
Atom   4C    basis set group =>   2
Atom   5C    basis set group =>   2
Atom   6C    basis set group =>   2
Atom   7C    basis set group =>   2
Atom   8H    basis set group =>   3
Atom   9H    basis set group =>   3
Atom  10H    basis set group =>   3
Atom  11H    basis set group =>   3
Atom  12C    basis set group =>   2
Atom  13C    basis set group =>   2
Atom  14H    basis set group =>   3
Atom  15C    basis set group =>   2
Atom  16H    basis set group =>   3
Atom  17C    basis set group =>   2
Atom  18H    basis set group =>   3
Atom  19C    basis set group =>   2
Atom  20H    basis set group =>   3
Atom  21H    basis set group =>   3
Atom  22C    basis set group =>   2
Atom  23H    basis set group =>   3
Atom  24H    basis set group =>   3
---------------------------------
AUXILIARY/J BASIS SET INFORMATION
---------------------------------
There are 3 groups of distinct atoms

 Group   1 Type N   : 12s5p4d2f1g contracted to 6s4p3d1f1g pattern {711111/2111/211/2/1}
 Group   2 Type C   : 12s5p4d2f1g contracted to 6s4p3d1f1g pattern {711111/2111/211/2/1}
 Group   3 Type H   : 5s2p1d contracted to 3s1p1d pattern {311/2/1}

Atom   0N    basis set group =>   1
Atom   1C    basis set group =>   2
Atom   2C    basis set group =>   2
Atom   3C    basis set group =>   2
Atom   4C    basis set group =>   2
Atom   5C    basis set group =>   2
Atom   6C    basis set group =>   2
Atom   7C    basis set group =>   2
Atom   8H    basis set group =>   3
Atom   9H    basis set group =>   3
Atom  10H    basis set group =>   3
Atom  11H    basis set group =>   3
Atom  12C    basis set group =>   2
Atom  13C    basis set group =>   2
Atom  14H    basis set group =>   3
Atom  15C    basis set group =>   2
Atom  16H    basis set group =>   3
Atom  17C    basis set group =>   2
Atom  18H    basis set group =>   3
Atom  19C    basis set group =>   2
Atom  20H    basis set group =>   3
Atom  21H    basis set group =>   3
Atom  22C    basis set group =>   2
Atom  23H    basis set group =>   3
Atom  24H    basis set group =>   3
---------------------------------
AUXILIARY/C BASIS SET INFORMATION
---------------------------------
There are 3 groups of distinct atoms

 Group   1 Type N   : 8s6p5d3f1g contracted to 8s6p4d3f1g pattern {11111111/111111/2111/111/1}
 Group   2 Type C   : 8s6p5d3f1g contracted to 8s6p4d3f1g pattern {11111111/111111/2111/111/1}
 Group   3 Type H   : 4s3p2d contracted to 4s2p1d pattern {1111/21/2}

Atom   0N    basis set group =>   1
Atom   1C    basis set group =>   2
Atom   2C    basis set group =>   2
Atom   3C    basis set group =>   2
Atom   4C    basis set group =>   2
Atom   5C    basis set group =>   2
Atom   6C    basis set group =>   2
Atom   7C    basis set group =>   2
Atom   8H    basis set group =>   3
Atom   9H    basis set group =>   3
Atom  10H    basis set group =>   3
Atom  11H    basis set group =>   3
Atom  12C    basis set group =>   2
Atom  13C    basis set group =>   2
Atom  14H    basis set group =>   3
Atom  15C    basis set group =>   2
Atom  16H    basis set group =>   3
Atom  17C    basis set group =>   2
Atom  18H    basis set group =>   3
Atom  19C    basis set group =>   2
Atom  20H    basis set group =>   3
Atom  21H    basis set group =>   3
Atom  22C    basis set group =>   2
Atom  23H    basis set group =>   3
Atom  24H    basis set group =>   3


           ************************************************************
           *        Program running with 48 parallel MPI-processes    *
           *              working on a common directory               *
           ************************************************************
------------------------------------------------------------------------------
                           ORCA GTO INTEGRAL CALCULATION
                           -- RI-GTO INTEGRALS CHOSEN --
------------------------------------------------------------------------------
------------------------------------------------------------------------------
                   ___                                                        
                  /   \      - P O W E R E D   B Y -                         
                 /     \                                                     
                 |  |  |   _    _      __       _____    __    __             
                 |  |  |  | |  | |    /  \     |  _  \  |  |  /  |          
                  \  \/   | |  | |   /    \    | | | |  |  | /  /          
                 / \  \   | |__| |  /  /\  \   | |_| |  |  |/  /          
                |  |  |   |  __  | /  /__\  \  |    /   |      \           
                |  |  |   | |  | | |   __   |  |    \   |  |\   \          
                \     /   | |  | | |  |  |  |  | |\  \  |  | \   \       
                 \___/    |_|  |_| |__|  |__|  |_| \__\ |__|  \__/        
                                                                              
                      - O R C A' S   B I G   F R I E N D -                    
                                      &                                       
                       - I N T E G R A L  F E E D E R -                       
                                                                              
 v1 FN, 2020, v2 2021                                                         
------------------------------------------------------------------------------


Reading SHARK input file input.SHARKINP.tmp ... ok
----------------------
SHARK INTEGRAL PACKAGE
----------------------

Number of atoms                             ...     25
Number of basis functions                   ...    500
Number of shells                            ...    198
Maximum angular momentum                    ...      3
Integral batch strategy                     ... SHARK/LIBINT Hybrid
RI-J (if used) integral strategy            ... SPLIT-RIJ (Revised 2003 algorithm where possible)
Printlevel                                  ...      1
Contraction scheme used                     ... SEGMENTED contraction
Coulomb Range Separation                    ... NOT USED
Exchange Range Separation                   ... NOT USED
Finite Nucleus Model                        ... NOT USED
Auxiliary Coulomb fitting basis             ... AVAILABLE
   # of basis functions in Aux-J            ...    807
   # of shells in Aux-J                     ...    265
   Maximum angular momentum in Aux-J        ...      4
Auxiliary J/K fitting basis                 ... NOT available
Auxiliary Correlation fitting basis         ... AVAILABLE
   # of basis functions in Aux-C            ...   1229
   # of shells in Aux-C                     ...    385
   Maximum angular momentum in Aux-C        ...      4
Auxiliary 'external' fitting basis          ... NOT available
Integral threshold                          ...     2.500000e-11
Primitive cut-off                           ...     2.500000e-12
Primitive pair pre-selection threshold      ...     2.500000e-12

Calculating pre-screening integrals         ... done (  0.1 sec) Dimension = 198
Organizing shell pair data                  ... done (  0.3 sec)
Shell pair information
Total number of shell pairs                 ...     19701
Shell pairs after pre-screening             ...     16133
Total number of primitive shell pairs       ...     60372
Primitive shell pairs kept                  ...     34823
          la=0 lb=0:   4197 shell pairs
          la=1 lb=0:   4565 shell pairs
          la=1 lb=1:   1264 shell pairs
          la=2 lb=0:   2334 shell pairs
          la=2 lb=1:   1286 shell pairs
          la=2 lb=2:    351 shell pairs
          la=3 lb=0:   1114 shell pairs
          la=3 lb=1:    622 shell pairs
          la=3 lb=2:    317 shell pairs
          la=3 lb=3:     83 shell pairs

Calculating one electron integrals          ... done (  0.0 sec)
Calculating RI/J V-Matrix + Cholesky decomp.... done (  0.2 sec)
Calculating RI/C V-Matrix + Cholesky decomp.... done (  0.3 sec)
Calculating Nuclear repulsion               ... done (  0.0 sec) ENN=    771.996591085732 Eh

SHARK setup successfully completed in   1.2 seconds

Maximum memory used throughout the entire GTOINT-calculation: 26.9 MB


           ************************************************************
           *        Program running with 48 parallel MPI-processes    *
           *              working on a common directory               *
           ************************************************************
-------------------------------------------------------------------------------
                                 ORCA SCF
-------------------------------------------------------------------------------

------------
SCF SETTINGS
------------
Hamiltonian:
 Density Functional     Method          .... DFT(GTOs)
 Exchange Functional    Exchange        .... B88
   X-Alpha parameter    XAlpha          ....  0.666667
   Becke's b parameter  XBeta           ....  0.004200
 Correlation Functional Correlation     .... LYP
 LDA part of GGA corr.  LDAOpt          .... VWN-5
 Gradients option       PostSCFGGA      .... off
 Hybrid DFT is turned on
   Fraction HF Exchange ScalHFX         ....  0.200000
   Scaling of DF-GGA-X  ScalDFX         ....  0.720000
   Scaling of DF-GGA-C  ScalDFC         ....  0.810000
   Scaling of DF-LDA-C  ScalLDAC        ....  1.000000
   Perturbative correction              ....  0.000000
   Density functional embedding theory  .... OFF
   NL short-range parameter             ....  4.800000
 RI-approximation to the Coulomb term is turned on
   Number of AuxJ basis functions       .... 807
   RIJ-COSX (HFX calculated with COS-X)).... on


General Settings:
 Integral files         IntName         .... input
 Hartree-Fock type      HFTyp           .... RHF
 Total Charge           Charge          ....    0
 Multiplicity           Mult            ....    1
 Number of Electrons    NEL             ....   96
 Basis Dimension        Dim             ....  500
 Nuclear Repulsion      ENuc            ....    771.9965910857 Eh

Convergence Acceleration:
 DIIS                   CNVDIIS         .... on
   Start iteration      DIISMaxIt       ....    12
   Startup error        DIISStart       ....  0.200000
   # of expansion vecs  DIISMaxEq       ....     5
   Bias factor          DIISBfac        ....   1.050
   Max. coefficient     DIISMaxC        ....  10.000
 Trust-Rad. Augm. Hess. CNVTRAH         .... auto
   Auto Start mean grad. ratio tolernc. ....  1.125000
   Auto Start start iteration           ....    20
   Auto Start num. interpolation iter.  ....    10
   Max. Number of Micro iterations      ....    16
   Max. Number of Macro iterations      .... Maxiter - #DIIS iter
   Number of Davidson start vectors     ....     2
   Converg. threshold I  (grad. norm)   ....   1.000e-05
   Converg. threshold II (energy diff.) ....   1.000e-08
   Grad. Scal. Fac. for Micro threshold ....   0.100
   Minimum threshold for Micro iter.    ....   0.010
   NR start threshold (gradient norm)   ....   0.001
   Initial trust radius                 ....   0.400
   Minimum AH scaling param. (alpha)    ....   1.000
   Maximum AH scaling param. (alpha)    .... 1000.000
   Orbital update algorithm             .... Taylor
   White noise on init. David. guess    .... on
   Maximum white noise                  ....   0.010
   Quad. conv. algorithm                .... NR
 SOSCF                  CNVSOSCF        .... on
   Start iteration      SOSCFMaxIt      ....   150
   Startup grad/error   SOSCFStart      ....  0.003300
 Level Shifting         CNVShift        .... on
   Level shift para.    LevelShift      ....    0.2500
   Turn off err/grad.   ShiftErr        ....    0.0010
 Zerner damping         CNVZerner       .... off
 Static damping         CNVDamp         .... on
   Fraction old density DampFac         ....    0.7000
   Max. Damping (<1)    DampMax         ....    0.9800
   Min. Damping (>=0)   DampMin         ....    0.0000
   Turn off err/grad.   DampErr         ....    0.1000
 Fernandez-Rico         CNVRico         .... off

SCF Procedure:
 Maximum # iterations   MaxIter         ....   125
 SCF integral mode      SCFMode         .... Direct
   Integral package                     .... SHARK and LIBINT hybrid scheme
 Reset frequency        DirectResetFreq ....    20
 Integral Threshold     Thresh          ....  2.500e-11 Eh
 Primitive CutOff       TCut            ....  2.500e-12 Eh

Convergence Tolerance:
 Convergence Check Mode ConvCheckMode   .... Total+1el-Energy
 Convergence forced     ConvForced      .... 0
 Energy Change          TolE            ....  1.000e-08 Eh
 1-El. energy change                    ....  1.000e-05 Eh
 Orbital Gradient       TolG            ....  1.000e-05
 Orbital Rotation angle TolX            ....  1.000e-05
 DIIS Error             TolErr          ....  5.000e-07


Diagonalization of the overlap matrix:
Smallest eigenvalue                        ... 7.914e-06
Time for diagonalization                   ...    0.035 sec
Threshold for overlap eigenvalues          ... 1.000e-08
Number of eigenvalues below threshold      ... 0
Time for construction of square roots      ...    0.108 sec
Total time needed                          ...    0.146 sec

Time for model grid setup =    0.244 sec

------------------------------
INITIAL GUESS: MODEL POTENTIAL
------------------------------
Loading Hartree-Fock densities                     ... done
Calculating cut-offs                               ... done
Initializing the effective Hamiltonian             ... done
Setting up the integral package (SHARK)            ... done
Starting the Coulomb interaction                   ... done (   0.2 sec)
Reading the grid                                   ... done
Mapping shells                                     ... done
Starting the XC term evaluation                    ... done (   0.0 sec)
  promolecular density results
     # of electrons  =     95.995930357
     EX              =    -76.567929720
     EC              =     -3.204952486
     EX+EC           =    -79.772882206
Transforming the Hamiltonian                       ... done (   0.0 sec)
Diagonalizing the Hamiltonian                      ... done (   0.0 sec)
Back transforming the eigenvectors                 ... done (   0.0 sec)
Now organizing SCF variables                       ... done
                      ------------------
                      INITIAL GUESS DONE (   0.8 sec)
                      ------------------
-------------------
DFT GRID GENERATION
-------------------

General Integration Accuracy     IntAcc      ... 4.388
Radial Grid Type                 RadialGrid  ... OptM3 with GC (2021)
Angular Grid (max. ang.)         AngularGrid ... 4 (Lebedev-302)
Angular grid pruning method      GridPruning ... 4 (adaptive)
Weight generation scheme         WeightScheme... Becke
Basis function cutoff            BFCut       ... 1.0000e-11
Integration weight cutoff        WCut        ... 1.0000e-14
Angular grids for H and He will be reduced by one unit
Partially contracted basis set               ... off
Rotationally invariant grid construction     ... off

Total number of grid points                  ...   119158
Total number of batches                      ...     1877
Average number of points per batch           ...       63
Average number of grid points per atom       ...     4766
Time for grid setup =    0.541 sec

--------------------
COSX GRID GENERATION
--------------------

GRIDX 1
-------
General Integration Accuracy     IntAcc      ... 3.816
Radial Grid Type                 RadialGrid  ... OptM3 with GC (2021)
Angular Grid (max. ang.)         AngularGrid ... 1 (Lebedev-50)
Angular grid pruning method      GridPruning ... 4 (adaptive)
Weight generation scheme         WeightScheme... Becke
Basis function cutoff            BFCut       ... 1.0000e-11
Integration weight cutoff        WCut        ... 1.0000e-14
Angular grids for H and He will be reduced by one unit
Partially contracted basis set               ... on
Rotationally invariant grid construction     ... off

Total number of grid points                  ...    15179
Total number of batches                      ...      245
Average number of points per batch           ...       61
Average number of grid points per atom       ...      607
UseSFitting                                  ... on

GRIDX 2
-------
General Integration Accuracy     IntAcc      ... 4.020
Radial Grid Type                 RadialGrid  ... OptM3 with GC (2021)
Angular Grid (max. ang.)         AngularGrid ... 2 (Lebedev-110)
Angular grid pruning method      GridPruning ... 4 (adaptive)
Weight generation scheme         WeightScheme... Becke
Basis function cutoff            BFCut       ... 1.0000e-11
Integration weight cutoff        WCut        ... 1.0000e-14
Angular grids for H and He will be reduced by one unit
Partially contracted basis set               ... on
Rotationally invariant grid construction     ... off

Total number of grid points                  ...    33080
Total number of batches                      ...      528
Average number of points per batch           ...       62
Average number of grid points per atom       ...     1323
UseSFitting                                  ... on

GRIDX 3
-------
General Integration Accuracy     IntAcc      ... 4.338
Radial Grid Type                 RadialGrid  ... OptM3 with GC (2021)
Angular Grid (max. ang.)         AngularGrid ... 3 (Lebedev-194)
Angular grid pruning method      GridPruning ... 4 (adaptive)
Weight generation scheme         WeightScheme... Becke
Basis function cutoff            BFCut       ... 1.0000e-11
Integration weight cutoff        WCut        ... 1.0000e-14
Angular grids for H and He will be reduced by one unit
Partially contracted basis set               ... on
Rotationally invariant grid construction     ... off

Total number of grid points                  ...    72505
Total number of batches                      ...     1146
Average number of points per batch           ...       63
Average number of grid points per atom       ...     2900
UseSFitting                                  ... on

Time for X-Grid setup             =    1.688 sec

--------------
SCF ITERATIONS
--------------
ITER       Energy         Delta-E        Max-DP      RMS-DP      [F,P]     Damp
               ***  Starting incremental Fock matrix formation  ***
  0   -556.0961201479   0.000000000000 0.07570354  0.00132533  0.2167746 0.7000
  1   -556.2769034350  -0.180783287132 0.08015014  0.00115342  0.0833619 0.7000
                               ***Turning on DIIS***
  2   -556.3442827961  -0.067379361137 0.11434370  0.00167603  0.0403589 0.0000
  3   -556.4504034917  -0.106120695557 0.07962274  0.00108580  0.0488298 0.0000
  4   -556.4762502028  -0.025846711133 0.02518520  0.00030817  0.0259586 0.0000
  5   -556.4792687939  -0.003018591072 0.01702134  0.00017950  0.0088356 0.0000
                      *** Initiating the SOSCF procedure ***
                           *** Shutting down DIIS ***
                      *** Re-Reading the Fockian *** 
                      *** Removing any level shift *** 
ITER      Energy       Delta-E        Grad      Rot      Max-DP    RMS-DP
  6   -556.47955719  -0.0002883944  0.001852  0.001852  0.003714  0.000056
               *** Restarting incremental Fock matrix formation ***
  7   -556.47960876  -0.0000515671  0.001773  0.028864  0.008619  0.000137
  8   -556.47975199  -0.0001432329  0.001325  0.027776  0.019482  0.000228
  9   -556.47975070   0.0000012928  0.002063  0.007754  0.005856  0.000065
 10   -556.47980950  -0.0000588008  0.000739  0.013748  0.011492  0.000127
 11   -556.47976718   0.0000423187  0.001629  0.009780  0.006478  0.000079
 12   -556.47982603  -0.0000588572  0.000238  0.001990  0.002229  0.000026
 13   -556.47982136   0.0000046711  0.000400  0.001500  0.001213  0.000015
 14   -556.47982865  -0.0000072896  0.000042  0.000232  0.000365  0.000005
 15   -556.47982853   0.0000001239  0.000051  0.000146  0.000087  0.000002
 16   -556.47982875  -0.0000002243  0.000008  0.000056  0.000064  0.000001
 17   -556.47982874   0.0000000094  0.000012  0.000029  0.000097  0.000001
                  ***Gradient check signals convergence***
              ***Rediagonalizing the Fockian in SOSCF/NRSCF***

               *****************************************************
               *                     SUCCESS                       *
               *           SCF CONVERGED AFTER  18 CYCLES          *
               *****************************************************

Old exchange energy                            =    -15.543604360 Eh
New exchange energy                            =    -15.543589167 Eh
Exchange energy change after final integration =      0.000015193 Eh
Total energy after final integration           =   -556.479813573 Eh
Final COS-X integration done in                =     1.912 sec

----------------
TOTAL SCF ENERGY
----------------

Total Energy       :         -556.47981357 Eh          -15142.58556 eV

Components:
Nuclear Repulsion  :          771.99659109 Eh           21007.09522 eV
Electronic Energy  :        -1328.47640466 Eh          -36149.68079 eV
One Electron Energy:        -2282.18316332 Eh          -62101.36105 eV
Two Electron Energy:          953.70675866 Eh           25951.68026 eV
Max COSX asymmetry :            0.00000130 Eh               0.00004 eV

Virial components:
Potential Energy   :        -1109.84390465 Eh          -30200.38800 eV
Kinetic Energy     :          553.36409108 Eh           15057.80244 eV
Virial Ratio       :            2.00563051


DFT components:
N(Alpha)           :       47.999999491181 electrons
N(Beta)            :       47.999999491181 electrons
N(Total)           :       95.999998982363 electrons
E(X)               :      -61.796177774435 Eh       
E(C)               :       -3.788288616686 Eh       
E(XC)              :      -65.584466391122 Eh       
DFET-embed. en.    :        0.000000000000 Eh       

---------------
SCF CONVERGENCE
---------------

  Last Energy change         ...   -2.2077e-08  Tolerance :   1.0000e-08
  Last MAX-Density change    ...    1.7764e-15  Tolerance :   1.0000e-07
  Last RMS-Density change    ...    1.2596e-17  Tolerance :   5.0000e-09
  Last Orbital Gradient      ...    1.6684e-06  Tolerance :   1.0000e-05
  Last Orbital Rotation      ...    8.9242e-06  Tolerance :   1.0000e-05

             **** THE GBW FILE WAS UPDATED (input.gbw) ****
             **** DENSITY input.scfp WAS UPDATED ****
             **** ENERGY FILE WAS UPDATED (input.en.tmp) ****
             **** THE GBW FILE WAS UPDATED (input.gbw) ****
             **** DENSITY input.scfp WAS UPDATED ****
----------------
ORBITAL ENERGIES
----------------

  NO   OCC          E(Eh)            E(eV) 
   0   2.0000     -14.326430      -389.8420 
   1   2.0000     -10.247424      -278.8466 
   2   2.0000     -10.220048      -278.1016 
   3   2.0000     -10.199425      -277.5405 
   4   2.0000     -10.191680      -277.3297 
   5   2.0000     -10.190598      -277.3003 
   6   2.0000     -10.188466      -277.2423 
   7   2.0000     -10.187675      -277.2207 
   8   2.0000     -10.187329      -277.2113 
   9   2.0000     -10.176062      -276.9047 
  10   2.0000     -10.173638      -276.8388 
  11   2.0000     -10.172890      -276.8184 
  12   2.0000     -10.170171      -276.7444 
  13   2.0000     -10.169104      -276.7154 
  14   2.0000      -0.898931       -24.4611 
  15   2.0000      -0.867131       -23.5958 
  16   2.0000      -0.835086       -22.7238 
  17   2.0000      -0.773209       -21.0401 
  18   2.0000      -0.758654       -20.6440 
  19   2.0000      -0.744551       -20.2603 
  20   2.0000      -0.730075       -19.8664 
  21   2.0000      -0.657482       -17.8910 
  22   2.0000      -0.619912       -16.8687 
  23   2.0000      -0.606907       -16.5148 
  24   2.0000      -0.600629       -16.3439 
  25   2.0000      -0.567199       -15.4343 
  26   2.0000      -0.530790       -14.4435 
  27   2.0000      -0.506963       -13.7952 
  28   2.0000      -0.477008       -12.9800 
  29   2.0000      -0.472282       -12.8515 
  30   2.0000      -0.456338       -12.4176 
  31   2.0000      -0.449867       -12.2415 
  32   2.0000      -0.438739       -11.9387 
  33   2.0000      -0.435009       -11.8372 
  34   2.0000      -0.430888       -11.7251 
  35   2.0000      -0.420895       -11.4531 
  36   2.0000      -0.386310       -10.5120 
  37   2.0000      -0.373946       -10.1756 
  38   2.0000      -0.366765        -9.9802 
  39   2.0000      -0.359756        -9.7895 
  40   2.0000      -0.355339        -9.6693 
  41   2.0000      -0.351701        -9.5703 
  42   2.0000      -0.306306        -8.3350 
  43   2.0000      -0.289770        -7.8850 
  44   2.0000      -0.270636        -7.3644 
  45   2.0000      -0.260721        -7.0946 
  46   2.0000      -0.251734        -6.8500 
  47   2.0000      -0.191290        -5.2053 
  48   0.0000      -0.128474        -3.4959 
  49   0.0000      -0.029156        -0.7934 
  50   0.0000      -0.011119        -0.3026 
  51   0.0000      -0.007665        -0.2086 
  52   0.0000       0.007942         0.2161 
  53   0.0000       0.042734         1.1628 
  54   0.0000       0.051256         1.3948 
  55   0.0000       0.062339         1.6963 
  56   0.0000       0.073499         2.0000 
  57   0.0000       0.080373         2.1871 
  58   0.0000       0.087445         2.3795 
  59   0.0000       0.095531         2.5995 
  60   0.0000       0.099468         2.7067 
  61   0.0000       0.113189         3.0800 
  62   0.0000       0.118476         3.2239 
  63   0.0000       0.122518         3.3339 
  64   0.0000       0.134475         3.6592 
  65   0.0000       0.142251         3.8708 
  66   0.0000       0.159441         4.3386 
  67   0.0000       0.163356         4.4451 
  68   0.0000       0.172221         4.6864 
  69   0.0000       0.177534         4.8310 
  70   0.0000       0.193686         5.2705 
  71   0.0000       0.199789         5.4365 
  72   0.0000       0.201652         5.4872 
  73   0.0000       0.206160         5.6099 
  74   0.0000       0.212954         5.7948 
  75   0.0000       0.217235         5.9113 
  76   0.0000       0.221089         6.0161 
  77   0.0000       0.230959         6.2847 
  78   0.0000       0.234049         6.3688 
  79   0.0000       0.239645         6.5211 
  80   0.0000       0.242102         6.5879 
  81   0.0000       0.245531         6.6812 
  82   0.0000       0.251208         6.8357 
  83   0.0000       0.264480         7.1969 
  84   0.0000       0.266398         7.2490 
  85   0.0000       0.270617         7.3639 
  86   0.0000       0.276994         7.5374 
  87   0.0000       0.292527         7.9601 
  88   0.0000       0.298612         8.1256 
  89   0.0000       0.301864         8.2141 
  90   0.0000       0.310199         8.4410 
  91   0.0000       0.323760         8.8100 
  92   0.0000       0.324970         8.8429 
  93   0.0000       0.333508         9.0752 
  94   0.0000       0.339517         9.2387 
  95   0.0000       0.353781         9.6269 
  96   0.0000       0.354677         9.6512 
  97   0.0000       0.358526         9.7560 
  98   0.0000       0.368197        10.0191 
  99   0.0000       0.371097        10.0981 
 100   0.0000       0.381223        10.3736 
 101   0.0000       0.387202        10.5363 
 102   0.0000       0.392369        10.6769 
 103   0.0000       0.397236        10.8093 
 104   0.0000       0.402239        10.9455 
 105   0.0000       0.407521        11.0892 
 106   0.0000       0.413246        11.2450 
 107   0.0000       0.419009        11.4018 
 108   0.0000       0.422770        11.5041 
 109   0.0000       0.430931        11.7262 
 110   0.0000       0.433589        11.7985 
 111   0.0000       0.441137        12.0039 
 112   0.0000       0.445724        12.1288 
 113   0.0000       0.450637        12.2625 
 114   0.0000       0.460844        12.5402 
 115   0.0000       0.463787        12.6203 
 116   0.0000       0.469108        12.7651 
 117   0.0000       0.474585        12.9141 
 118   0.0000       0.482537        13.1305 
 119   0.0000       0.491977        13.3874 
 120   0.0000       0.494044        13.4436 
 121   0.0000       0.497244        13.5307 
 122   0.0000       0.502710        13.6794 
 123   0.0000       0.510294        13.8858 
 124   0.0000       0.516823        14.0635 
 125   0.0000       0.527031        14.3412 
 126   0.0000       0.535545        14.5729 
 127   0.0000       0.565032        15.3753 
 128   0.0000       0.580142        15.7865 
 129   0.0000       0.591079        16.0841 
 130   0.0000       0.593772        16.1574 
 131   0.0000       0.603831        16.4311 
 132   0.0000       0.621104        16.9011 
 133   0.0000       0.629875        17.1398 
 134   0.0000       0.648558        17.6482 
 135   0.0000       0.650302        17.6956 
 136   0.0000       0.664375        18.0786 
 137   0.0000       0.669969        18.2308 
 138   0.0000       0.675891        18.3919 
 139   0.0000       0.679154        18.4807 
 140   0.0000       0.685180        18.6447 
 141   0.0000       0.689788        18.7701 
 142   0.0000       0.698640        19.0110 
 143   0.0000       0.713659        19.4196 
 144   0.0000       0.720970        19.6186 
 145   0.0000       0.728098        19.8126 
 146   0.0000       0.734984        19.9999 
 147   0.0000       0.748159        20.3584 
 148   0.0000       0.762560        20.7503 
 149   0.0000       0.773286        21.0422 
 150   0.0000       0.782032        21.2802 
 151   0.0000       0.788718        21.4621 
 152   0.0000       0.795227        21.6392 
 153   0.0000       0.805073        21.9072 
 154   0.0000       0.816181        22.2094 
 155   0.0000       0.833909        22.6918 
 156   0.0000       0.838556        22.8183 
 157   0.0000       0.846474        23.0337 
 158   0.0000       0.864734        23.5306 
 159   0.0000       0.881187        23.9783 
 160   0.0000       0.885417        24.0934 
 161   0.0000       0.887948        24.1623 
 162   0.0000       0.896477        24.3944 
 163   0.0000       0.908428        24.7196 
 164   0.0000       0.918025        24.9807 
 165   0.0000       0.935329        25.4516 
 166   0.0000       0.939063        25.5532 
 167   0.0000       0.963705        26.2237 
 168   0.0000       0.989038        26.9131 
 169   0.0000       1.006906        27.3993 
 170   0.0000       1.007340        27.4111 
 171   0.0000       1.015575        27.6352 
 172   0.0000       1.028978        27.9999 
 173   0.0000       1.040947        28.3256 
 174   0.0000       1.049188        28.5498 
 175   0.0000       1.069811        29.1110 
 176   0.0000       1.081786        29.4369 
 177   0.0000       1.091458        29.7001 
 178   0.0000       1.094641        29.7867 
 179   0.0000       1.107730        30.1429 
 180   0.0000       1.120832        30.4994 
 181   0.0000       1.140980        31.0476 
 182   0.0000       1.151064        31.3220 
 183   0.0000       1.169597        31.8263 
 184   0.0000       1.185925        32.2707 
 185   0.0000       1.196039        32.5459 
 186   0.0000       1.205315        32.7983 
 187   0.0000       1.209863        32.9220 
 188   0.0000       1.219868        33.1943 
 189   0.0000       1.224736        33.3268 
 190   0.0000       1.234630        33.5960 
 191   0.0000       1.242665        33.8146 
 192   0.0000       1.250363        34.0241 
 193   0.0000       1.256375        34.1877 
 194   0.0000       1.263261        34.3751 
 195   0.0000       1.278324        34.7850 
 196   0.0000       1.286012        34.9942 
 197   0.0000       1.291307        35.1382 
 198   0.0000       1.297634        35.3104 
 199   0.0000       1.321121        35.9495 
 200   0.0000       1.333689        36.2915 
 201   0.0000       1.360030        37.0083 
 202   0.0000       1.375790        37.4372 
 203   0.0000       1.390317        37.8324 
 204   0.0000       1.398904        38.0661 
 205   0.0000       1.408209        38.3193 
 206   0.0000       1.415838        38.5269 
 207   0.0000       1.438546        39.1448 
 208   0.0000       1.439931        39.1825 
 209   0.0000       1.447563        39.3902 
 210   0.0000       1.458273        39.6816 
 211   0.0000       1.462068        39.7849 
 212   0.0000       1.478928        40.2437 
 213   0.0000       1.484931        40.4070 
 214   0.0000       1.503865        40.9222 
 215   0.0000       1.510322        41.0980 
 216   0.0000       1.519123        41.3374 
 217   0.0000       1.531897        41.6850 
 218   0.0000       1.544830        42.0370 
 219   0.0000       1.552047        42.2333 
 220   0.0000       1.576067        42.8870 
 221   0.0000       1.581938        43.0467 
 222   0.0000       1.596655        43.4472 
 223   0.0000       1.599826        43.5335 
 224   0.0000       1.603327        43.6288 
 225   0.0000       1.630236        44.3610 
 226   0.0000       1.644142        44.7394 
 227   0.0000       1.653470        44.9932 
 228   0.0000       1.657385        45.0997 
 229   0.0000       1.661738        45.2182 
 230   0.0000       1.670448        45.4552 
 231   0.0000       1.682152        45.7737 
 232   0.0000       1.685199        45.8566 
 233   0.0000       1.687907        45.9303 
 234   0.0000       1.700308        46.2677 
 235   0.0000       1.710437        46.5433 
 236   0.0000       1.718740        46.7693 
 237   0.0000       1.723558        46.9004 
 238   0.0000       1.736962        47.2651 
 239   0.0000       1.753269        47.7089 
 240   0.0000       1.770121        48.1674 
 241   0.0000       1.781855        48.4867 
 242   0.0000       1.800990        49.0074 
 243   0.0000       1.807529        49.1854 
 244   0.0000       1.837313        49.9958 
 245   0.0000       1.847150        50.2635 
 246   0.0000       1.860509        50.6270 
 247   0.0000       1.874291        51.0020 
 248   0.0000       1.898915        51.6721 
 249   0.0000       1.919026        52.2193 
 250   0.0000       1.934816        52.6490 
 251   0.0000       1.951636        53.1067 
 252   0.0000       1.962684        53.4073 
 253   0.0000       1.983221        53.9662 
 254   0.0000       2.006558        54.6012 
 255   0.0000       2.034309        55.3564 
 256   0.0000       2.040263        55.5184 
 257   0.0000       2.052823        55.8602 
 258   0.0000       2.061216        56.0885 
 259   0.0000       2.073075        56.4112 
 260   0.0000       2.085305        56.7440 
 261   0.0000       2.088438        56.8293 
 262   0.0000       2.103366        57.2355 
 263   0.0000       2.116889        57.6035 
 264   0.0000       2.130399        57.9711 
 265   0.0000       2.147079        58.4250 
 266   0.0000       2.157994        58.7220 
 267   0.0000       2.166804        58.9617 
 268   0.0000       2.179035        59.2946 
 269   0.0000       2.195573        59.7446 
 270   0.0000       2.209552        60.1250 
 271   0.0000       2.215665        60.2913 
 272   0.0000       2.238003        60.8992 
 273   0.0000       2.248560        61.1864 
 274   0.0000       2.257417        61.4274 
 275   0.0000       2.294310        62.4314 
 276   0.0000       2.299814        62.5811 
 277   0.0000       2.322778        63.2060 
 278   0.0000       2.344495        63.7969 
 279   0.0000       2.370519        64.5051 
 280   0.0000       2.388454        64.9931 
 281   0.0000       2.417324        65.7787 
 282   0.0000       2.451520        66.7093 
 283   0.0000       2.462276        67.0019 
 284   0.0000       2.472211        67.2723 
 285   0.0000       2.510376        68.3108 
 286   0.0000       2.520990        68.5996 
 287   0.0000       2.527957        68.7892 
 288   0.0000       2.537013        69.0356 
 289   0.0000       2.538333        69.0716 
 290   0.0000       2.560654        69.6789 
 291   0.0000       2.572935        70.0131 
 292   0.0000       2.584070        70.3161 
 293   0.0000       2.593590        70.5752 
 294   0.0000       2.596973        70.6672 
 295   0.0000       2.614659        71.1485 
 296   0.0000       2.622418        71.3596 
 297   0.0000       2.634031        71.6756 
 298   0.0000       2.642919        71.9175 
 299   0.0000       2.645569        71.9896 
 300   0.0000       2.652360        72.1744 
 301   0.0000       2.653268        72.1991 
 302   0.0000       2.659345        72.3645 
 303   0.0000       2.666740        72.5657 
 304   0.0000       2.680366        72.9365 
 305   0.0000       2.680893        72.9508 
 306   0.0000       2.686073        73.0918 
 307   0.0000       2.697868        73.4127 
 308   0.0000       2.702672        73.5434 
 309   0.0000       2.714378        73.8620 
 310   0.0000       2.729236        74.2663 
 311   0.0000       2.736167        74.4549 
 312   0.0000       2.749378        74.8144 
 313   0.0000       2.758742        75.0692 
 314   0.0000       2.764696        75.2312 
 315   0.0000       2.778626        75.6103 
 316   0.0000       2.780844        75.6706 
 317   0.0000       2.791494        75.9604 
 318   0.0000       2.800296        76.1999 
 319   0.0000       2.811131        76.4948 
 320   0.0000       2.825908        76.8969 
 321   0.0000       2.831181        77.0404 
 322   0.0000       2.841493        77.3210 
 323   0.0000       2.843423        77.3735 
 324   0.0000       2.851567        77.5951 
 325   0.0000       2.860109        77.8275 
 326   0.0000       2.863796        77.9279 
 327   0.0000       2.877610        78.3038 
 328   0.0000       2.887257        78.5663 
 329   0.0000       2.892955        78.7213 
 330   0.0000       2.895992        78.8040 
 331   0.0000       2.907984        79.1303 
 332   0.0000       2.930686        79.7480 
 333   0.0000       2.939604        79.9907 
 334   0.0000       2.949785        80.2677 
 335   0.0000       2.967810        80.7582 
 336   0.0000       2.988948        81.3334 
 337   0.0000       3.004314        81.7515 
 338   0.0000       3.018271        82.1313 
 339   0.0000       3.025627        82.3315 
 340   0.0000       3.067193        83.4626 
 341   0.0000       3.081657        83.8561 
 342   0.0000       3.090583        84.0990 
 343   0.0000       3.105367        84.5013 
 344   0.0000       3.114109        84.7392 
 345   0.0000       3.118690        84.8639 
 346   0.0000       3.122192        84.9592 
 347   0.0000       3.128059        85.1188 
 348   0.0000       3.131149        85.2029 
 349   0.0000       3.139734        85.4365 
 350   0.0000       3.143465        85.5380 
 351   0.0000       3.151498        85.7566 
 352   0.0000       3.154818        85.8470 
 353   0.0000       3.160616        86.0047 
 354   0.0000       3.168298        86.2138 
 355   0.0000       3.179491        86.5184 
 356   0.0000       3.192178        86.8636 
 357   0.0000       3.208301        87.3023 
 358   0.0000       3.216852        87.5350 
 359   0.0000       3.225455        87.7691 
 360   0.0000       3.242040        88.2204 
 361   0.0000       3.245331        88.3099 
 362   0.0000       3.252986        88.5183 
 363   0.0000       3.262709        88.7828 
 364   0.0000       3.269873        88.9778 
 365   0.0000       3.280168        89.2579 
 366   0.0000       3.295376        89.6717 
 367   0.0000       3.313873        90.1751 
 368   0.0000       3.322464        90.4088 
 369   0.0000       3.329852        90.6099 
 370   0.0000       3.338906        90.8562 
 371   0.0000       3.350763        91.1789 
 372   0.0000       3.355972        91.3206 
 373   0.0000       3.360481        91.4433 
 374   0.0000       3.365590        91.5824 
 375   0.0000       3.379401        91.9582 
 376   0.0000       3.391012        92.2741 
 377   0.0000       3.397175        92.4418 
 378   0.0000       3.410114        92.7939 
 379   0.0000       3.411517        92.8321 
 380   0.0000       3.418083        93.0108 
 381   0.0000       3.443796        93.7105 
 382   0.0000       3.446357        93.7801 
 383   0.0000       3.455835        94.0381 
 384   0.0000       3.459678        94.1426 
 385   0.0000       3.473091        94.5076 
 386   0.0000       3.483965        94.8035 
 387   0.0000       3.494971        95.1030 
 388   0.0000       3.500654        95.2576 
 389   0.0000       3.515609        95.6646 
 390   0.0000       3.517221        95.7084 
 391   0.0000       3.536116        96.2226 
 392   0.0000       3.538290        96.2818 
 393   0.0000       3.556698        96.7827 
 394   0.0000       3.565835        97.0313 
 395   0.0000       3.588667        97.6526 
 396   0.0000       3.612036        98.2885 
 397   0.0000       3.620888        98.5294 
 398   0.0000       3.644251        99.1651 
 399   0.0000       3.668929        99.8366 
 400   0.0000       3.686401       100.3121 
 401   0.0000       3.713400       101.0467 
 402   0.0000       3.720285       101.2341 
 403   0.0000       3.732896       101.5773 
 404   0.0000       3.760590       102.3309 
 405   0.0000       3.764262       102.4308 
 406   0.0000       3.780964       102.8853 
 407   0.0000       3.788106       103.0796 
 408   0.0000       3.829436       104.2043 
 409   0.0000       3.869423       105.2923 
 410   0.0000       3.878233       105.5321 
 411   0.0000       3.889339       105.8343 
 412   0.0000       3.911817       106.4460 
 413   0.0000       3.939295       107.1937 
 414   0.0000       3.962034       107.8124 
 415   0.0000       3.992513       108.6418 
 416   0.0000       3.993895       108.6794 
 417   0.0000       4.012472       109.1849 
 418   0.0000       4.034093       109.7733 
 419   0.0000       4.041558       109.9764 
 420   0.0000       4.054508       110.3288 
 421   0.0000       4.066231       110.6478 
 422   0.0000       4.071151       110.7817 
 423   0.0000       4.089096       111.2699 
 424   0.0000       4.100130       111.5702 
 425   0.0000       4.130883       112.4071 
 426   0.0000       4.147341       112.8549 
 427   0.0000       4.176333       113.6438 
 428   0.0000       4.183011       113.8255 
 429   0.0000       4.189899       114.0129 
 430   0.0000       4.193916       114.1223 
 431   0.0000       4.201315       114.3236 
 432   0.0000       4.213953       114.6675 
 433   0.0000       4.215482       114.7091 
 434   0.0000       4.227375       115.0327 
 435   0.0000       4.230137       115.1079 
 436   0.0000       4.236672       115.2857 
 437   0.0000       4.259107       115.8962 
 438   0.0000       4.279980       116.4642 
 439   0.0000       4.284723       116.5932 
 440   0.0000       4.299120       116.9850 
 441   0.0000       4.307182       117.2044 
 442   0.0000       4.323719       117.6544 
 443   0.0000       4.343818       118.2013 
 444   0.0000       4.368177       118.8641 
 445   0.0000       4.384006       119.2949 
 446   0.0000       4.450336       121.0998 
 447   0.0000       4.524320       123.1130 
 448   0.0000       4.534435       123.3882 
 449   0.0000       4.590404       124.9112 
 450   0.0000       4.605863       125.3319 
 451   0.0000       4.630347       125.9982 
 452   0.0000       4.657240       126.7299 
 453   0.0000       4.677845       127.2906 
 454   0.0000       4.686500       127.5261 
 455   0.0000       4.705695       128.0485 
 456   0.0000       4.738226       128.9337 
 457   0.0000       4.802920       130.6941 
 458   0.0000       4.814724       131.0153 
 459   0.0000       4.838882       131.6727 
 460   0.0000       4.845783       131.8605 
 461   0.0000       4.864149       132.3602 
 462   0.0000       4.875644       132.6730 
 463   0.0000       4.937587       134.3586 
 464   0.0000       4.951267       134.7308 
 465   0.0000       4.976422       135.4153 
 466   0.0000       5.017389       136.5301 
 467   0.0000       5.062830       137.7666 
 468   0.0000       5.117173       139.2454 
 469   0.0000       5.141822       139.9161 
 470   0.0000       5.143871       139.9718 
 471   0.0000       5.179199       140.9332 
 472   0.0000       5.209697       141.7631 
 473   0.0000       5.259151       143.1088 
 474   0.0000       5.279055       143.6504 
 475   0.0000       5.303984       144.3288 
 476   0.0000       5.344223       145.4237 
 477   0.0000       5.386572       146.5761 
 478   0.0000       5.423448       147.5795 
 479   0.0000       5.445007       148.1662 
 480   0.0000       5.532084       150.5357 
 481   0.0000       5.585388       151.9861 
 482   0.0000       5.663327       154.1070 
 483   0.0000       5.681088       154.5903 
 484   0.0000       5.834164       158.7557 
 485   0.0000       5.973741       162.5538 
 486   0.0000      22.013903       599.0288 
 487   0.0000      22.105115       601.5108 
 488   0.0000      22.299363       606.7965 
 489   0.0000      22.553209       613.7040 
 490   0.0000      22.562360       613.9530 
 491   0.0000      22.574565       614.2852 
 492   0.0000      22.574915       614.2947 
 493   0.0000      22.671393       616.9200 
 494   0.0000      22.692981       617.5074 
 495   0.0000      22.732809       618.5912 
 496   0.0000      22.760263       619.3383 
 497   0.0000      23.122522       629.1958 
 498   0.0000      23.134107       629.5110 
 499   0.0000      32.552769       885.8059 

                    ********************************
                    * MULLIKEN POPULATION ANALYSIS *
                    ********************************

-----------------------
MULLIKEN ATOMIC CHARGES
-----------------------
   0 N :   -0.254977
   1 C :   -0.006912
   2 C :   -0.126591
   3 C :   -0.079190
   4 C :   -0.211174
   5 C :    0.205491
   6 C :   -0.108328
   7 C :   -0.187334
   8 H :    0.105009
   9 H :    0.107266
  10 H :    0.104643
  11 H :    0.109347
  12 C :    0.090877
  13 C :   -0.169350
  14 H :    0.113669
  15 C :   -0.106190
  16 H :    0.113302
  17 C :   -0.094898
  18 H :    0.116248
  19 C :   -0.115118
  20 H :    0.115907
  21 H :    0.149197
  22 C :   -0.139873
  23 H :    0.121037
  24 H :    0.147942
Sum of atomic charges:   -0.0000000

--------------------------------
MULLIKEN REDUCED ORBITAL CHARGES
--------------------------------
  0 N s       :     3.559898  s :     3.559898
      pz      :     1.078164  p :     3.639112
      px      :     1.477379
      py      :     1.083569
      dz2     :     0.006799  d :     0.052572
      dxz     :     0.007047
      dyz     :     0.010223
      dx2y2   :     0.013477
      dxy     :     0.015025
      f0      :     0.000297  f :     0.003394
      f+1     :     0.000113
      f-1     :     0.000499
      f+2     :     0.000380
      f-2     :     0.000570
      f+3     :     0.000778
      f-3     :     0.000758
  1 C s       :     3.284079  s :     3.284079
      pz      :     0.899072  p :     2.614075
      px      :     0.775438
      py      :     0.939565
      dz2     :     0.007481  d :     0.101096
      dxz     :     0.023312
      dyz     :     0.015554
      dx2y2   :     0.035581
      dxy     :     0.019168
      f0      :     0.000540  f :     0.007663
      f+1     :     0.000340
      f-1     :     0.000893
      f+2     :     0.000486
      f-2     :     0.001147
      f+3     :     0.002030
      f-3     :     0.002226
  2 C s       :     3.205245  s :     3.205245
      pz      :     0.941974  p :     2.836820
      px      :     0.936911
      py      :     0.957935
      dz2     :     0.016620  d :     0.077322
      dxz     :     0.012702
      dyz     :     0.015075
      dx2y2   :     0.020325
      dxy     :     0.012600
      f0      :     0.000949  f :     0.007204
      f+1     :     0.001140
      f-1     :     0.000638
      f+2     :     0.001222
      f-2     :     0.001298
      f+3     :     0.000771
      f-3     :     0.001186
  3 C s       :     3.191516  s :     3.191516
      pz      :     0.932911  p :     2.800953
      px      :     0.946869
      py      :     0.921174
      dz2     :     0.019043  d :     0.079462
      dxz     :     0.009499
      dyz     :     0.017839
      dx2y2   :     0.011621
      dxy     :     0.021460
      f0      :     0.000859  f :     0.007259
      f+1     :     0.000871
      f-1     :     0.001119
      f+2     :     0.001102
      f-2     :     0.001390
      f+3     :     0.001173
      f-3     :     0.000745
  4 C s       :     3.291484  s :     3.291484
      pz      :     0.940960  p :     2.836000
      px      :     0.983437
      py      :     0.911604
      dz2     :     0.010017  d :     0.076416
      dxz     :     0.010415
      dyz     :     0.017244
      dx2y2   :     0.018238
      dxy     :     0.020502
      f0      :     0.000393  f :     0.007274
      f+1     :     0.000805
      f-1     :     0.001320
      f+2     :     0.001003
      f-2     :     0.001282
      f+3     :     0.001366
      f-3     :     0.001104
  5 C s       :     3.051951  s :     3.051951
      pz      :     0.890820  p :     2.575328
      px      :     0.889044
      py      :     0.795465
      dz2     :     0.029543  d :     0.154491
      dxz     :     0.023901
      dyz     :     0.029908
      dx2y2   :     0.030460
      dxy     :     0.040679
      f0      :     0.001293  f :     0.012739
      f+1     :     0.001131
      f-1     :     0.002045
      f+2     :     0.002131
      f-2     :     0.002081
      f+3     :     0.002325
      f-3     :     0.001733
  6 C s       :     3.203537  s :     3.203537
      pz      :     0.947815  p :     2.817516
      px      :     0.958070
      py      :     0.911631
      dz2     :     0.010490  d :     0.079975
      dxz     :     0.010851
      dyz     :     0.019188
      dx2y2   :     0.020961
      dxy     :     0.018486
      f0      :     0.000339  f :     0.007299
      f+1     :     0.000878
      f-1     :     0.001445
      f+2     :     0.001058
      f-2     :     0.001249
      f+3     :     0.001309
      f-3     :     0.001022
  7 C s       :     3.242597  s :     3.242597
      pz      :     0.940417  p :     2.858797
      px      :     0.936529
      py      :     0.981851
      dz2     :     0.017984  d :     0.078711
      dxz     :     0.011672
      dyz     :     0.016462
      dx2y2   :     0.011627
      dxy     :     0.020967
      f0      :     0.000852  f :     0.007229
      f+1     :     0.000844
      f-1     :     0.001177
      f+2     :     0.001152
      f-2     :     0.001441
      f+3     :     0.001067
      f-3     :     0.000695
  8 H s       :     0.872472  s :     0.872472
      pz      :     0.006008  p :     0.022519
      px      :     0.004262
      py      :     0.012250
  9 H s       :     0.870389  s :     0.870389
      pz      :     0.005205  p :     0.022344
      px      :     0.008533
      py      :     0.008607
 10 H s       :     0.872875  s :     0.872875
      pz      :     0.009905  p :     0.022483
      px      :     0.008510
      py      :     0.004068
 11 H s       :     0.868268  s :     0.868268
      pz      :     0.009734  p :     0.022385
      px      :     0.008406
      py      :     0.004245
 12 C s       :     3.178071  s :     3.178071
      pz      :     0.931884  p :     2.602296
      px      :     0.849266
      py      :     0.821146
      dz2     :     0.009151  d :     0.119299
      dxz     :     0.018424
      dyz     :     0.020745
      dx2y2   :     0.030733
      dxy     :     0.040247
      f0      :     0.001222  f :     0.009457
      f+1     :     0.000808
      f-1     :     0.000982
      f+2     :     0.000787
      f-2     :     0.001079
      f+3     :     0.002267
      f-3     :     0.002312
 13 C s       :     3.243849  s :     3.243849
      pz      :     0.945942  p :     2.838365
      px      :     0.930646
      py      :     0.961776
      dz2     :     0.004473  d :     0.079865
[...]
 18 H s       :     0.863537  s :     0.863537
      pz      :     0.005337  p :     0.022315
      px      :     0.013054
      py      :     0.003923
 19 C s       :     3.218327  s :     3.218327
      pz      :     0.963521  p :     2.822148
      px      :     0.912726
      py      :     0.945901
      dz2     :     0.006113  d :     0.077937
      dxz     :     0.018458
      dyz     :     0.008972
      dx2y2   :     0.022899
      dxy     :     0.021495
      f0      :     0.001101  f :     0.007289
      f+1     :     0.000923
      f-1     :     0.000462
      f+2     :     0.000632
      f-2     :     0.001044
      f+3     :     0.001306
      f-3     :     0.001821
 20 H s       :     0.864105  s :     0.864105
      pz      :     0.005643  p :     0.022371
      px      :     0.004479
      py      :     0.012249
 21 H s       :     0.821847  s :     0.821847
      pz      :     0.004594  p :     0.023338
      px      :     0.008824
      py      :     0.009920
 22 C s       :     3.220452  s :     3.220452
      pz      :     0.909080  p :     2.808902
      px      :     0.942141
      py      :     0.957681
      dz2     :     0.010124  d :     0.080041
      dxz     :     0.013839
      dyz     :     0.011455
      dx2y2   :     0.016177
      dxy     :     0.028448
      f0      :     0.000751  f :     0.007299
      f+1     :     0.000997
      f-1     :     0.000961
      f+2     :     0.000983
      f-2     :     0.000524
      f+3     :     0.001383
      f-3     :     0.001700
 23 H s       :     0.868502  s :     0.868502
      pz      :     0.006946  p :     0.022542
      px      :     0.007569
      py      :     0.008026
 24 H s       :     0.866391  s :     0.866391
      pz      :     0.003864  p :     0.021472
      px      :     0.003692
      py      :     0.013916


                     *******************************
                     * LOEWDIN POPULATION ANALYSIS *
                     *******************************

----------------------
LOEWDIN ATOMIC CHARGES
----------------------
   0 N :    0.181383
   1 C :   -0.168150
   2 C :   -0.154432
   3 C :   -0.142333
   4 C :   -0.116623
   5 C :   -0.220873
   6 C :   -0.143432
   7 C :   -0.116905
   8 H :    0.139559
   9 H :    0.141950
  10 H :    0.145147
  11 H :    0.142345
  12 C :   -0.145383
  13 C :   -0.095964
  14 H :    0.147143
  15 C :   -0.135731
  16 H :    0.143880
  17 C :   -0.125999
  18 H :    0.143554
  19 C :   -0.131119
  20 H :    0.144941
  21 H :    0.158038
  22 C :   -0.079261
  23 H :    0.146303
  24 H :    0.141962

-------------------------------
LOEWDIN REDUCED ORBITAL CHARGES
-------------------------------
  0 N s       :     3.013031  s :     3.013031
      pz      :     1.030461  p :     3.576910
      px      :     1.369900
      py      :     1.176549
      dz2     :     0.020478  d :     0.210930
      dxz     :     0.020013
      dyz     :     0.039036
      dx2y2   :     0.072448
      dxy     :     0.058955
      f0      :     0.001312  f :     0.017747
      f+1     :     0.001066
      f-1     :     0.002245
      f+2     :     0.002028
      f-2     :     0.001871
      f+3     :     0.005865
      f-3     :     0.003361
  1 C s       :     2.780674  s :     2.780674
      pz      :     0.807926  p :     2.813025
      px      :     1.011714
      py      :     0.993385
      dz2     :     0.035253  d :     0.512763
      dxz     :     0.095445
      dyz     :     0.018039
      dx2y2   :     0.247938
      dxy     :     0.116089
      f0      :     0.004502  f :     0.061688
      f+1     :     0.006382
      f-1     :     0.003768
      f+2     :     0.002864
      f-2     :     0.009204
      f+3     :     0.021275
      f-3     :     0.013693
  2 C s       :     2.764588  s :     2.764588
      pz      :     1.012508  p :     2.963008
      px      :     0.964261
      py      :     0.986239
      dz2     :     0.093076  d :     0.383461
      dxz     :     0.070901
      dyz     :     0.091420
      dx2y2   :     0.083337
      dxy     :     0.044726
      f0      :     0.005805  f :     0.043375
      f+1     :     0.006598
      f-1     :     0.007844
      f+2     :     0.007158
      f-2     :     0.006560
      f+3     :     0.004455
      f-3     :     0.004954
  3 C s       :     2.764597  s :     2.764597
      pz      :     0.992945  p :     2.941350
      px      :     0.922805
      py      :     1.025600
      dz2     :     0.075008  d :     0.392614
      dxz     :     0.054782
      dyz     :     0.122220
      dx2y2   :     0.053135
      dxy     :     0.087468
      f0      :     0.007175  f :     0.043772
      f+1     :     0.005084
      f-1     :     0.007594
      f+2     :     0.007274
      f-2     :     0.005175
      f+3     :     0.006795
      f-3     :     0.004676
  4 C s       :     2.761765  s :     2.761765
      pz      :     0.961190  p :     2.941148
      px      :     0.939411
      py      :     1.040547
      dz2     :     0.062775  d :     0.371180
      dxz     :     0.044142
      dyz     :     0.097751
      dx2y2   :     0.077323
      dxy     :     0.089189
      f0      :     0.002956  f :     0.042531
      f+1     :     0.004081
      f-1     :     0.009113
      f+2     :     0.006856
      f-2     :     0.005846
      f+3     :     0.008096
      f-3     :     0.005583
  5 C s       :     2.708674  s :     2.708674
      pz      :     0.988773  p :     2.820943
      px      :     0.921796
      py      :     0.910375
      dz2     :     0.119218  d :     0.615243
      dxz     :     0.080904
      dyz     :     0.149340
      dx2y2   :     0.128703
      dxy     :     0.137078
      f0      :     0.008751  f :     0.076013
      f+1     :     0.007035
      f-1     :     0.014304
      f+2     :     0.012955
      f-2     :     0.008496
      f+3     :     0.014792
      f-3     :     0.009680
  6 C s       :     2.764418  s :     2.764418
      pz      :     0.959339  p :     2.941652
      px      :     0.930566
      py      :     1.051747
      dz2     :     0.069957  d :     0.393495
      dxz     :     0.045962
      dyz     :     0.100936
      dx2y2   :     0.085850
      dxy     :     0.090789
      f0      :     0.003068  f :     0.043867
      f+1     :     0.004429
      f-1     :     0.009763
      f+2     :     0.007294
      f-2     :     0.005778
      f+3     :     0.008104
      f-3     :     0.005431
  7 C s       :     2.760453  s :     2.760453
      pz      :     0.991967  p :     2.939725
      px      :     0.925683
      py      :     1.022076
      dz2     :     0.072160  d :     0.374071
      dxz     :     0.052372
      dyz     :     0.116198
      dx2y2   :     0.052143
      dxy     :     0.081198
      f0      :     0.006835  f :     0.042655
      f+1     :     0.005019
      f-1     :     0.007611
      f+2     :     0.007143
      f-2     :     0.004960
      f+3     :     0.006598
      f-3     :     0.004490
  8 H s       :     0.801570  s :     0.801570
      pz      :     0.014150  p :     0.058872
      px      :     0.013302
      py      :     0.031419
  9 H s       :     0.800005  s :     0.800005
      pz      :     0.017861  p :     0.058045
      px      :     0.019681
      py      :     0.020503
 10 H s       :     0.795517  s :     0.795517
      pz      :     0.028157  p :     0.059336
      px      :     0.018073
      py      :     0.013105
 11 H s       :     0.799574  s :     0.799574
      pz      :     0.027873  p :     0.058081
      px      :     0.017326
      py      :     0.012882
 12 C s       :     2.708810  s :     2.708810
      pz      :     0.866961  p :     2.873655
      px      :     0.974298
      py      :     1.032397
      dz2     :     0.045686  d :     0.506307
      dxz     :     0.066485
      dyz     :     0.077427
      dx2y2   :     0.162791
      dxy     :     0.153917
      f0      :     0.004280  f :     0.056612
      f+1     :     0.004309
      f-1     :     0.004952
      f+2     :     0.005443
      f-2     :     0.008278
      f+3     :     0.012905
      f-3     :     0.016445
 13 C s       :     2.757884  s :     2.757884
      pz      :     0.884459  p :     2.911718
      px      :     1.041944
      py      :     0.985315
      dz2     :     0.026998  d :     0.383310
      dxz     :     0.072049
      dyz     :     0.034163
      dx2y2   :     0.131416
      dxy     :     0.118683
      f0      :     0.003634  f :     0.043051
      f+1     :     0.005038
      f-1     :     0.002276
      f+2     :     0.004107
      f-2     :     0.006266
      f+3     :     0.009462
      f-3     :     0.012268
 14 H s       :     0.794095  s :     0.794095
      pz      :     0.015332  p :     0.058762
      px      :     0.012879
      py      :     0.030551
 15 C s       :     2.763982  s :     2.763982
      pz      :     0.904889  p :     2.944183
      px      :     1.025021
      py      :     1.014274
      dz2     :     0.039769  d :     0.383984
      dxz     :     0.052481
      dyz     :     0.042368
      dx2y2   :     0.094742
      dxy     :     0.154623
      f0      :     0.003160  f :     0.043582
      f+1     :     0.004149
      f-1     :     0.004213
      f+2     :     0.007195
      f-2     :     0.003809
      f+3     :     0.009323
      f-3     :     0.011732
 16 H s       :     0.797679  s :     0.797679
      pz      :     0.013136  p :     0.058441
      px      :     0.021047
      py      :     0.024258
 17 C s       :     2.766590  s :     2.766590
      pz      :     0.885705  p :     2.930817
      px      :     0.988414
      py      :     1.056699
      dz2     :     0.029932  d :     0.385189
      dxz     :     0.031319
      dyz     :     0.073231
      dx2y2   :     0.146411
      dxy     :     0.104295
      f0      :     0.003681  f :     0.043403
      f+1     :     0.002482
      f-1     :     0.004971
      f+2     :     0.003322
      f-2     :     0.007350
      f+3     :     0.009885
      f-3     :     0.011711
 18 H s       :     0.797982  s :     0.797982
      pz      :     0.014600  p :     0.058463
      px      :     0.032236
      py      :     0.011628
 19 C s       :     2.764233  s :     2.764233
      pz      :     0.895373  p :     2.938977
      px      :     1.052754
      py      :     0.990849
      dz2     :     0.026761  d :     0.384444
      dxz     :     0.069347
      dyz     :     0.036222
      dx2y2   :     0.133601
      dxy     :     0.118513
      f0      :     0.003761  f :     0.043466
      f+1     :     0.005156
      f-1     :     0.002204
      f+2     :     0.004227
      f-2     :     0.006281
      f+3     :     0.009362
      f-3     :     0.012474
 20 H s       :     0.796671  s :     0.796671
      pz      :     0.015282  p :     0.058389
      px      :     0.012763
      py      :     0.030344
 21 H s       :     0.780270  s :     0.780270
      pz      :     0.012972  p :     0.061692
      px      :     0.023223
      py      :     0.025497
 22 C s       :     2.757687  s :     2.757687
      pz      :     0.882282  p :     2.901330
      px      :     1.022240
      py      :     0.996808
      dz2     :     0.040155  d :     0.377285
      dxz     :     0.052631
      dyz     :     0.041747
      dx2y2   :     0.092977
      dxy     :     0.149777
      f0      :     0.003108  f :     0.042959
      f+1     :     0.004169
      f-1     :     0.004125
      f+2     :     0.007115
      f-2     :     0.003813
      f+3     :     0.009126
      f-3     :     0.011503
 23 H s       :     0.794087  s :     0.794087
      pz      :     0.018362  p :     0.059610
      px      :     0.020361
      py      :     0.020886
 24 H s       :     0.802083  s :     0.802083
      pz      :     0.010968  p :     0.055955
      px      :     0.009879
      py      :     0.035108


                      *****************************
                      * MAYER POPULATION ANALYSIS *
                      *****************************

  NA   - Mulliken gross atomic population
  ZA   - Total nuclear charge
  QA   - Mulliken gross atomic charge
  VA   - Mayer's total valence
  BVA  - Mayer's bonded valence
  FA   - Mayer's free valence

  ATOM       NA         ZA         QA         VA         BVA        FA
  0 N      7.1451     7.0000    -0.1451     3.1515     3.1515    -0.0000
  1 C      6.0778     6.0000    -0.0778     3.9982     3.9982    -0.0000
  2 C      6.1286     6.0000    -0.1286     3.9136     3.9136     0.0000
  3 C      6.0787     6.0000    -0.0787     3.8742     3.8742     0.0000
  4 C      6.2172     6.0000    -0.2172     4.0179     4.0179    -0.0000
  5 C      5.8346     6.0000     0.1654     3.8775     3.8775     0.0000
  6 C      6.0856     6.0000    -0.0856     3.8667     3.8667    -0.0000
  7 C      6.1758     6.0000    -0.1758     3.9292     3.9292     0.0000
  8 H      0.8958     1.0000     0.1042     0.9701     0.9701     0.0000
  9 H      0.8955     1.0000     0.1045     0.9684     0.9684     0.0000
 10 H      0.8988     1.0000     0.1012     0.9935     0.9935     0.0000
 11 H      0.8945     1.0000     0.1055     0.9685     0.9685     0.0000
 12 C      5.8752     6.0000     0.1248     3.6631     3.6631     0.0000
 13 C      6.1729     6.0000    -0.1729     3.9527     3.9527     0.0000
 14 H      0.8890     1.0000     0.1110     0.9761     0.9761    -0.0000
 15 C      6.1103     6.0000    -0.1103     3.9228     3.9228     0.0000
 16 H      0.8879     1.0000     0.1121     0.9697     0.9697     0.0000
 17 C      6.0979     6.0000    -0.0979     3.9061     3.9061     0.0000
 18 H      0.8859     1.0000     0.1141     0.9681     0.9681     0.0000
 19 C      6.1257     6.0000    -0.1257     3.9153     3.9153    -0.0000
 20 H      0.8865     1.0000     0.1135     0.9710     0.9710    -0.0000
 21 H      0.8452     1.0000     0.1548     0.9638     0.9638     0.0000
 22 C      6.1167     6.0000    -0.1167     3.8960     3.8960    -0.0000
 23 H      0.8910     1.0000     0.1090     0.9800     0.9800    -0.0000
 24 H      0.8879     1.0000     0.1121     0.9623     0.9623    -0.0000

  Mayer bond orders larger than 0.100000
B(  0-N ,  1-C ) :   1.9143 B(  0-N ,  5-C ) :   1.0703 B(  1-C , 12-C ) :   0.9646 
B(  1-C , 24-H ) :   0.9816 B(  2-C ,  3-C ) :   1.3916 B(  2-C ,  6-C ) :   1.3939 
B(  2-C ,  8-H ) :   0.9715 B(  3-C ,  4-C ) :   1.4256 B(  3-C ,  9-H ) :   0.9738 
B(  4-C ,  5-C ) :   1.3741 B(  4-C , 10-H ) :   0.9803 B(  5-C ,  7-C ) :   1.3412 
B(  6-C ,  7-C ) :   1.4047 B(  6-C , 11-H ) :   0.9670 B(  7-C , 23-H ) :   0.9714 
B( 12-C , 13-C ) :   1.3381 B( 12-C , 22-C ) :   1.3357 B( 13-C , 14-H ) :   0.9641 
B( 13-C , 15-C ) :   1.4272 B( 15-C , 16-H ) :   0.9706 B( 15-C , 17-C ) :   1.4077 
B( 17-C , 18-H ) :   0.9671 B( 17-C , 19-C ) :   1.3731 B( 19-C , 20-H ) :   0.9717 
B( 19-C , 22-C ) :   1.4541 B( 21-H , 22-C ) :   0.9436 

-------
TIMINGS
-------

Total SCF time: 0 days 0 hours 0 min 32 sec 

Total time                  ....      32.264 sec
Sum of individual times     ....      28.514 sec  ( 88.4%)

Fock matrix formation       ....      24.248 sec  ( 75.2%)
  Split-RI-J                ....       1.439 sec  (  5.9% of F)
  Chain of spheres X        ....      10.266 sec  ( 42.3% of F)
  XC integration            ....       9.125 sec  ( 37.6% of F)
    Basis function eval.    ....       0.188 sec  (  2.1% of XC)
    Density eval.           ....       0.232 sec  (  2.5% of XC)
    XC-Functional eval.     ....       0.035 sec  (  0.4% of XC)
    XC-Potential eval.      ....       0.197 sec  (  2.2% of XC)
Diagonalization             ....       0.109 sec  (  0.3%)
Density matrix formation    ....       0.301 sec  (  0.9%)
Population analysis         ....       0.157 sec  (  0.5%)
Initial guess               ....       0.094 sec  (  0.3%)
Orbital Transformation      ....       0.000 sec  (  0.0%)
Orbital Orthonormalization  ....       0.073 sec  (  0.2%)
DIIS solution               ....       0.048 sec  (  0.1%)
SOSCF solution              ....       0.442 sec  (  1.4%)
Grid generation             ....       3.116 sec  (  9.7%)

Maximum memory used throughout the entire SCF-calculation: 103.8 MB


-------------------------------------------------------------------------------
                          DFT DISPERSION CORRECTION                            
                                                                               
                              DFTD3 V3.1  Rev 1                                
                          USING Becke-Johnson damping                          
-------------------------------------------------------------------------------
The B3LYP functional is recognized
Active option DFTDOPT                   ...         4   

molecular C6(AA) [au] = 7919.265925 


            DFT-D V3
 parameters
 s6 scaling factor         :     1.0000 
 a1 scaling factor         :     0.3981 
 s8 scaling factor         :     1.9889 
 a2 scaling factor         :     4.4211 
 ad hoc parameters k1-k3   :    16.0000     1.3333    -4.0000 

 Edisp/kcal,au: -33.213437624602  -0.052928976302 
 E6   /kcal   : -15.422006541 
 E8   /kcal   : -17.791431084 
 % E8         :  53.566966734 

-------------------------   ----------------
Dispersion correction           -0.052928976
-------------------------   ----------------


-------------------------   --------------------
FINAL SINGLE POINT ENERGY      -556.638073233090
-------------------------   --------------------

                                *** OPTIMIZATION RUN DONE ***

                            ***************************************
                            *     ORCA property calculations      *
                            ***************************************

                                    ---------------------
                                    Active property flags
                                    ---------------------
   (+) Dipole Moment


------------------------------------------------------------------------------
                       ORCA ELECTRIC PROPERTIES CALCULATION
------------------------------------------------------------------------------

Dipole Moment Calculation                       ... on
Quadrupole Moment Calculation                   ... off
Polarizability Calculation                      ... off
GBWName                                         ... input.gbw
Electron density                                ... input.scfp
The origin for moment calculation is the CENTER OF MASS  = (-7.074454,  1.566668  1.272148)

-------------
DIPOLE MOMENT
-------------
                                X             Y             Z
Electronic contribution:      1.94539      -2.06763      -0.24662
Nuclear contribution   :     -2.93990       2.01023       0.14226
                        -----------------------------------------
Total Dipole Moment    :     -0.99452      -0.05741      -0.10436
                        -----------------------------------------
Magnitude (a.u.)       :      1.00162
Magnitude (Debye)      :      2.54592



--------------------
Rotational spectrum 
--------------------
 
Rotational constants in cm-1:     0.053805     0.013357     0.012105 
Rotational constants in MHz :  1613.043769   400.419847   362.899239 

 Dipole components along the rotational axes: 
x,y,z [a.u.] :    -0.822186    -0.559194     0.120674 
x,y,z [Debye]:    -2.089830    -1.421357     0.306728 

 

Timings for individual modules:

Sum of individual times         ...      793.703 sec (=  13.228 min)
GTO integral calculation        ...       50.661 sec (=   0.844 min)   6.4 %
SCF iterations                  ...      631.329 sec (=  10.522 min)  79.5 %
SCF Gradient evaluation         ...      111.057 sec (=   1.851 min)  14.0 %
Geometry relaxation             ...        0.656 sec (=   0.011 min)   0.1 %
                             ****ORCA TERMINATED NORMALLY****
TOTAL RUN TIME: 0 days 0 hours 13 minutes 47 seconds 587 msec
