
                                 *****************
                                 * O   R   C   A *
                                 *****************

           --- An Ab Initio, DFT and Semiempirical electronic structure package ---

                  #######################################################
                  #                        -***-                        #
                  #  Department of molecular theory and spectroscopy    #
                  #              Directorship: Frank Neese              #
                  # Max Planck Institute for Chemical Energy Conversion #
                  #                  D-45470 Muelheim/Ruhr              #
                  #                       Germany                       #
                  #                                                     #
                  #                  All rights reserved                #
                  #                        -***-                        #
                  #######################################################


                         Program Version 3.0.3 - RELEASE   -


 With contributions from (in alphabetic order):
   Ute Becker             : Parallelization
   Dmytro Bykov           : SCF Hessian
   Dmitry Ganyushin       : Spin-Orbit,Spin-Spin,Magnetic field MRCI
   Andreas Hansen         : Spin unrestricted coupled pair/coupled cluster methods
   Dimitrios Liakos       : Extrapolation schemes; parallel MDCI
   Robert Izsak           : Overlap fitted RIJCOSX, COSX-SCS-MP3
   Christian Kollmar      : KDIIS, OOCD, Brueckner-CCSD(T), CCSD density
   Simone Kossmann        : Meta GGA functionals, TD-DFT gradient, OOMP2, MP2 Hessian
   Taras Petrenko         : DFT Hessian,TD-DFT gradient, ASA and ECA modules, normal mode analysis, Resonance Raman, ABS, FL, XAS/XES, NRVS
   Christoph Reimann      : Effective Core Potentials
   Michael Roemelt        : Restricted open shell CIS
   Christoph Riplinger    : Improved optimizer, TS searches, QM/MM, DLPNO-CCSD
   Barbara Sandhoefer     : DKH picture change effects
   Igor Schapiro          : Molecular dynamics
   Kantharuban Sivalingam : CASSCF convergence, NEVPT2
   Boris Wezisla          : Elementary symmetry handling
   Frank Wennmohs         : Technical directorship


 We gratefully acknowledge several colleagues who have allowed us to
 interface, adapt or use parts of their codes:
   Stefan Grimme, W. Hujo, H. Kruse, T. Risthaus : VdW corrections, initial TS optimization,
                                                   DFT functionals, gCP
   Ed Valeev                                     : LibInt (2-el integral package), F12 methods
   Garnet Chan, S. Sharma, R. Olivares           : DMRG
   Ulf Ekstrom                                   : XCFun DFT Library
   Mihaly Kallay                                 : mrcc  (arbitrary order and MRCC methods)
   Andreas Klamt, Michael Diedenhofen            : otool_cosmo (COSMO solvation model)
   Frank Weinhold                                : gennbo (NPA and NBO analysis)
   Christopher J. Cramer and Donald G. Truhlar   : smd solvation model


 Your calculation uses the libint2 library for the computation of 2-el integrals
 For citations please refer to: http://libint.valeyev.net

 This ORCA versions uses:
   CBLAS   interface :  Fast vector & matrix operations
   LAPACKE interface :  Fast linear algebra routines
   SCALAPACK package :  Parallel linear algebra routines


WARNING: Replacing QZV by QZV-ZORA
Your calculation utilizes the basis: QZV-ZORA
Cite in your paper:
H - Ba, Hf - Hg: D. A. Pantazis, X. Y. Chen, C. R. Landis and F. Neese, J. Chem. Theory Comput. 4, 908 (2008)
La-Lu          : D. A. Pantazis and F. Neese, J. Chem. Theory Comput. 5, 2229 (2009)
Ac-Lr          : D. A. Pantazis and F. Neese, J. Chem. Theory Comput. 7, 677 (2011)
Tl-Rn          : D. A. Pantazis and F. Neese, Theor. Chem. Acc. 131, 1292 (2012)

Your calculation utilizes the basis: TZV-ZORA
Cite in your paper:
H - Ba, Hf - Hg: D. A. Pantazis, X. Y. Chen, C. R. Landis and F. Neese, J. Chem. Theory Comput. 4, 908 (2008)
La-Lu          : D. A. Pantazis and F. Neese, J. Chem. Theory Comput. 5, 2229 (2009)
Ac-Lr          : D. A. Pantazis and F. Neese, J. Chem. Theory Comput. 7, 677 (2011)
Tl-Rn          : D. A. Pantazis and F. Neese, Theor. Chem. Acc. 131, 1292 (2012)

================================================================================
                                        WARNINGS
                       Please study these warnings very carefully!
================================================================================
Now building the actual basis set


INFO   : the flag for use of LIBINT has been found!

================================================================================
                                       INPUT FILE
================================================================================
NAME = ORCA.in
|  1> %pal nprocs 8 end 
|  2> %maxcore 9500
|  3> 
|  4> ! RHF ZORA DLPNO-CCSD(T) def2-QZVPP/C def2-QZVPP TightSCF Grid5 NoFinalGrid
|  5> 
|  6> *xyz 2 1 
|  7> Zn         2.56459        0.61891        2.58795
|  8> *
|  9> 
| 10>                          ****END OF INPUT****
================================================================================

                       ****************************
                       * Single Point Calculation *
                       ****************************

---------------------------------
CARTESIAN COORDINATES (ANGSTROEM)
---------------------------------
  Zn     2.564590    0.618910    2.587950

----------------------------
CARTESIAN COORDINATES (A.U.)
----------------------------
  NO LB      ZA    FRAG    MASS        X           Y           Z
   0 Zn   30.0000    0    65.380          4.846372745793103          1.169570401545202          4.890516748281503

--------------------------------
INTERNAL COORDINATES (ANGSTROEM)
--------------------------------
 Zn     0   0   0   0.000000     0.000     0.000

---------------------------
INTERNAL COORDINATES (A.U.)
---------------------------
 Zn     0   0   0   0.000000     0.000     0.000

---------------------
BASIS SET INFORMATION
---------------------
There are 1 groups of distinct atoms

 Group   1 Type Zn  : 24s18p10d3f2g contracted to 14s10p5d3f2g pattern {111111111111111/9111111111/61111/111/11}

Atom   0Zn   basis set group =>   1

INFORMATION: There is an auxiliary basis set but the global RI flag is NOT set

-------------------------------
AUXILIARY BASIS SET INFORMATION
-------------------------------
There are 1 groups of distinct atoms

 Group   1 Type Zn  : 15s13p11d9f7g5h2i contracted to 15s13p11d9f7g5h2i pattern {111111111111111/1111111111111/11111111111/111111111/1111111/11111/11}

Atom   0Zn   basis set group =>   1


           ************************************************************
           *        Program running with 8 parallel MPI-processes     *
           *              working on a common directory               *
           ************************************************************
------------------------------------------------------------------------------
                           ORCA GTO INTEGRAL CALCULATION
------------------------------------------------------------------------------

                         BASIS SET STATISTICS AND STARTUP INFO

 # of primitive gaussian shells          ...   57
 # of primitive gaussian functions       ...  167
 # of contracted shell                   ...   34
 # of contracted basis functions         ...  108
 Highest angular momentum                ...    4
 Maximum contraction depth               ...   11
 Integral package used                   ... LIBINT
 Integral threshhold            Thresh   ...  2.500e-11
 Primitive cut-off              TCut     ...  2.500e-12


                              INTEGRAL EVALUATION

 One electron integrals                  ... done
 Pre-screening matrix                    ... done
 Shell pair data                         ... done (   0.000 sec)

           ************************************************************
           *              Shut down parallel processing               *
           ************************************************************
------------------------------------------------------------------------------
                          ORCA RELATIVISTIC HAMILTONIAN
------------------------------------------------------------------------------

Relativistic Method            ... ZORA(MP)
Treatment of potential         ... Van Wuellen
Nucleus model                  ... Point Nucleus
Speed of light used            ... 137.03598950000000


            *************************************************
            *         ZERO ORDER REGULAR APPROXIMATION      *
            *                     ZORA(MP)                  *
            *            Programmed by FN according to      *
            *                   C. van Wuellen              *
            *       J. Chem. Phys. (1998) vol 109, 392-399  *
            *************************************************

Terms included in model potential: +V(e,N)+V(C)+V(Xa)+V(VWN-V)
Basis function cutoff value   ... 1.000000e-11
Loading the fitted atomic densities (ZORA)   ... done
Calculating the cutoffs                      ... done
Number of fit functions                      ... 27
Setting up the integration grid ... done


           ************************************************************
           *        Program running with 8 parallel MPI-processes     *
           *              working on a common directory               *
           ************************************************************
-------------------------------------------------------------------------------
                                 ORCA SCF
-------------------------------------------------------------------------------

------------
SCF SETTINGS
------------
Hamiltonian:
 Ab initio Hamiltonian  Method          .... Hartree-Fock(GTOs)

Relativistic Settings:
 Scalar relativistic method             .... ZORA
 Speed of light used       Velit        ....       137.035989
Orbital energies will be scaled


General Settings:
 Integral files         IntName         .... ORCA
 Hartree-Fock type      HFTyp           .... RHF
 Total Charge           Charge          ....    2
 Multiplicity           Mult            ....    1
 Number of Electrons    NEL             ....   28
 Basis Dimension        Dim             ....  108
 Nuclear Repulsion      ENuc            ....      0.0000000000 Eh

Convergence Acceleration:
 DIIS                   CNVDIIS         .... on
   Start iteration      DIISMaxIt       ....    12
   Startup error        DIISStart       ....  0.200000
   # of expansion vecs  DIISMaxEq       ....     5
   Bias factor          DIISBfac        ....   1.050
   Max. coefficient     DIISMaxC        ....  10.000
 Newton-Raphson         CNVNR           .... off
 SOSCF                  CNVSOSCF        .... off
 Level Shifting         CNVShift        .... on
   Level shift para.    LevelShift      ....    0.2500
   Turn off err/grad.   ShiftErr        ....    0.0010
 Zerner damping         CNVZerner       .... off
 Static damping         CNVDamp         .... on
   Fraction old density DampFac         ....    0.7000
   Max. Damping (<1)    DampMax         ....    0.9800
   Min. Damping (>=0)   DampMin         ....    0.0000
   Turn off err/grad.   DampErr         ....    0.1000
 Fernandez-Rico         CNVRico         .... off

SCF Procedure:
 Maximum # iterations   MaxIter         ....   125
 SCF integral mode      SCFMode         .... Direct
   Integral package                     .... LIBINT
 Reset frequeny         DirectResetFreq ....    20
 Integral Threshold     Thresh          ....  2.500e-11 Eh
 Primitive CutOff       TCut            ....  2.500e-12 Eh

Convergence Tolerance:
 Convergence Check Mode ConvCheckMode   .... Total+1el-Energy
 Energy Change          TolE            ....  1.000e-08 Eh
 1-El. energy change                    ....  1.000e-05 Eh
 DIIS Error             TolErr          ....  5.000e-07


Diagonalization of the overlap matrix:
Smallest eigenvalue                        ... 4.063e-04
Time for diagonalization                   ...    0.007 sec
Threshold for overlap eigenvalues          ... 1.000e-08
Number of eigenvalues below threshold      ... 0
Time for construction of square roots      ...    0.002 sec
Total time needed                          ...    0.009 sec

-------------------
DFT GRID GENERATION
-------------------

General Integration Accuracy     IntAcc      ...  5.010
Radial Grid Type                 RadialGrid  ... Gauss-Chebyshev
Angular Grid (max. acc.)         AngularGrid ... Lebedev-434
Angular grid pruning method      GridPruning ... 3 (G Style)
Weight generation scheme         WeightScheme... Becke
Basis function cutoff            BFCut       ...    1.0000e-11
Integration weight cutoff        WCut        ...    1.0000e-14
Grids for H and He will be reduced by one unit

# of grid points (after initial pruning)     ...  15986 (   0.0 sec)
# of grid points (after weights+screening)   ...  15986 (   0.0 sec)
Grid point division into batches done        ...    0.3 sec
Reduced shell lists constructed in    0.3 sec

Total number of grid points                  ...    15986
Total number of batches                      ...      250
Average number of points per batch           ...       63
Average number of grid points per atom       ...    15986
Average number of shells per batch           ...     5.52 (16.22%)
Average number of basis functions per batch  ...    15.58 (14.42%)
Average number of large shells per batch     ...     4.06 (73.63%)
Average number of large basis fcns per batch ...    10.97 (70.43%)
Maximum spatial batch extension              ...  21.19, 21.19, 21.19 au
Average spatial batch extension              ...   2.03,  2.05,  1.99 au

Time for grid setup =    0.294 sec

------------------------------
INITIAL GUESS: MODEL POTENTIAL
------------------------------
Loading ZORA relativistic densities                ... done
Calculating cut-offs                               ... done
Setting up the integral package                    ... done
Initializing the effective Hamiltonian             ... done
Starting the Coulomb interaction                   ... done (   0.0 sec)
Reading the grid                                   ... done
Mapping shells                                     ... done
Starting the XC term evaluation                    ... done (   0.0 sec)
Transforming the Hamiltonian                       ... done (   0.0 sec)
Diagonalizing the Hamiltonian                      ... done (   0.0 sec)
Back transforming the eigenvectors                 ... done (   0.0 sec)
Now organizing SCF variables                       ... done
                      ------------------
                      INITIAL GUESS DONE (   0.4 sec)
                      ------------------
--------------
SCF ITERATIONS
--------------
ITER       Energy         Delta-E        Max-DP      RMS-DP      [F,P]     Damp
               ***  Starting incremental Fock matrix formation  ***
  0  -1802.5938574997   0.000000000000 0.03488133  0.00121877  1.7102554 0.7000
  1  -1802.6851045782  -0.091247078555 0.01872364  0.00073475  1.1955804 0.7000
  2  -1802.7330415090  -0.047936930760 0.01092983  0.00043480  0.8379719 0.7000
  3  -1802.7640935875  -0.031052078504 0.00731934  0.00028840  0.5886109 0.7000
  4  -1802.7856634760  -0.021569888467 0.00511524  0.00020357  0.4139673 0.7000
  5  -1802.8008348391  -0.015171363095 0.00369964  0.00014657  0.2913218 0.7000
  6  -1802.8115167364  -0.010681897355 0.00273090  0.00010634  0.2050700 0.7000
                               ***Turning on DIIS***
  7  -1802.8190322790  -0.007515542624 0.00203709  0.00007760  0.1443713 0.7000
  8  -1802.7767401301   0.042292148924 0.00166559  0.00006090  0.1016429 0.7000
  9  -1802.7839104116  -0.007170281525 0.00425332  0.00015247  0.0712986 0.0000
 10  -1802.8364302912  -0.052519879532 0.00033922  0.00000907  0.0004876 0.0000
 11  -1802.8365087884  -0.000078497245 0.00006693  0.00000175  0.0000787 0.0000
 12  -1802.8367793109  -0.000270522492 0.00000356  0.00000011  0.0000121 0.0000
 13  -1802.8366204926   0.000158818302 0.00000182  0.00000005  0.0000101 0.0000
                            ***DIIS convergence achieved***

               *****************************************************
               *                     SUCCESS                       *
               *           SCF CONVERGED AFTER  14 CYCLES          *
               *****************************************************


----------------
TOTAL SCF ENERGY
----------------

Total Energy       :        -1802.83675246 Eh          -49057.68208 eV

Components:
Nuclear Repulsion  :            0.00000000 Eh               0.00000 eV
Electronic Energy  :        -1802.83675246 Eh          -49057.68208 eV

One Electron Energy:        -2491.92673072 Eh          -67808.77367 eV
Two Electron Energy:          689.08997826 Eh           18751.09160 eV

Virial components:
Potential Energy   :        -3635.62256860 Eh          -98930.31961 eV
Kinetic Energy     :         1832.78581613 Eh           49872.63753 eV
Virial Ratio       :            1.98365927


---------------
SCF CONVERGENCE
---------------

  Last Energy change         ...   -1.3197e-04  Tolerance :   1.0000e-08
  Last MAX-Density change    ...    1.0723e-07  Tolerance :   1.0000e-07
  Last RMS-Density change    ...    2.8904e-09  Tolerance :   5.0000e-09
  Last DIIS Error            ...    4.4322e-07  Tolerance :   5.0000e-07

             **** THE GBW FILE WAS UPDATED (ORCA.gbw) ****
             **** DENSITY FILE WAS UPDATED (ORCA.scfp.tmp) ****
             **** ENERGY FILE WAS UPDATED (ORCA.en.tmp) ****
----------------
ORBITAL ENERGIES
----------------

  NO   OCC          E(Eh)            E(eV) 
   0   2.0000    -362.668044     -9868.6992 
   1   2.0000     -46.194362     -1257.0125 
   2   2.0000     -39.978785     -1087.8781 
   3   2.0000     -39.978785     -1087.8781 
   4   2.0000     -39.978785     -1087.8781 
   5   2.0000      -6.553662      -178.3342 
   6   2.0000      -4.637906      -126.2039 
   7   2.0000      -4.637906      -126.2039 
   8   2.0000      -4.637906      -126.2039 
   9   2.0000      -1.521447       -41.4007 
  10   2.0000      -1.521447       -41.4007 
  11   2.0000      -1.521447       -41.4007 
  12   2.0000      -1.521447       -41.4007 
  13   2.0000      -1.521447       -41.4007 
  14   0.0000      -0.615727       -16.7548 
  15   0.0000      -0.410141       -11.1605 
  16   0.0000      -0.410141       -11.1605 
  17   0.0000      -0.410141       -11.1605 
  18   0.0000      -0.244268        -6.6469 
  19   0.0000      -0.191053        -5.1988 
  20   0.0000      -0.191053        -5.1988 
  21   0.0000      -0.191053        -5.1988 
  22   0.0000      -0.191053        -5.1988 
  23   0.0000      -0.191053        -5.1988 
  24   0.0000      -0.183113        -4.9828 
  25   0.0000      -0.183113        -4.9828 
  26   0.0000      -0.183113        -4.9828 
  27   0.0000       0.089224         2.4279 
  28   0.0000       0.169245         4.6054 
  29   0.0000       0.169245         4.6054 
  30   0.0000       0.169245         4.6054 
  31   0.0000       0.235781         6.4159 
  32   0.0000       0.235781         6.4159 
  33   0.0000       0.235781         6.4159 
  34   0.0000       0.235781         6.4159 
  35   0.0000       0.235781         6.4159 
  36   0.0000       1.544038        42.0154 
  37   0.0000       1.544038        42.0154 
  38   0.0000       1.544038        42.0154 
  39   0.0000       1.677027        45.6342 
  40   0.0000       1.677027        45.6342 
  41   0.0000       1.677027        45.6342 
  42   0.0000       1.677027        45.6342 
  43   0.0000       1.677027        45.6342 
  44   0.0000       1.995930        54.3120 
  45   0.0000       1.995930        54.3120 
  46   0.0000       1.995930        54.3120 
  47   0.0000       1.995930        54.3120 
  48   0.0000       1.995930        54.3120 
  49   0.0000       1.995930        54.3120 
  50   0.0000       1.995930        54.3120 
  51   0.0000       2.511937        68.3533 
  52   0.0000       5.970844       162.4749 
  53   0.0000       5.970844       162.4749 
  54   0.0000       5.970844       162.4749 
  55   0.0000       5.970844       162.4749 
  56   0.0000       5.970844       162.4749 
  57   0.0000       6.053610       164.7271 
  58   0.0000       6.053610       164.7271 
  59   0.0000       6.053610       164.7271 
  60   0.0000       7.676500       208.8882 
  61   0.0000       7.676500       208.8882 
  62   0.0000       7.676500       208.8882 
  63   0.0000       7.676500       208.8882 
  64   0.0000       7.676500       208.8882 
  65   0.0000       7.676500       208.8882 
  66   0.0000       7.676500       208.8882 
  67   0.0000       7.919757       215.5075 
  68   0.0000       7.919757       215.5075 
  69   0.0000       7.919757       215.5075 
  70   0.0000       7.919757       215.5075 
  71   0.0000       7.919757       215.5075 
  72   0.0000       7.919757       215.5075 
  73   0.0000       7.919757       215.5075 
  74   0.0000       7.919757       215.5075 
  75   0.0000       7.919757       215.5075 
  76   0.0000      12.659789       344.4904 
  77   0.0000      20.119404       547.4768 
  78   0.0000      20.119404       547.4768 
  79   0.0000      20.119404       547.4768 
  80   0.0000      24.232913       659.4111 
  81   0.0000      24.232913       659.4111 
  82   0.0000      24.232913       659.4111 
  83   0.0000      24.232913       659.4111 
  84   0.0000      24.232913       659.4111 
  85   0.0000      24.232913       659.4111 
  86   0.0000      24.232913       659.4111 
  87   0.0000      28.022245       762.5241 
  88   0.0000      28.022245       762.5241 
  89   0.0000      28.022245       762.5241 
  90   0.0000      28.022245       762.5241 
  91   0.0000      28.022245       762.5241 
  92   0.0000      28.022245       762.5241 
  93   0.0000      28.022245       762.5241 
  94   0.0000      28.022245       762.5241 
  95   0.0000      28.022245       762.5241 
  96   0.0000      44.992970      1224.3210 
  97   0.0000     128.059500      3484.6761 
  98   0.0000     128.059500      3484.6761 
  99   0.0000     128.059500      3484.6761 
 100   0.0000     141.077047      3838.9016 
 101   0.0000     295.918367      8052.3481 
 102   0.0000     295.918367      8052.3481 
 103   0.0000     295.918367      8052.3481 
 104   0.0000     419.154444     11405.7723 
 105   0.0000    1248.030726     33960.6426 
 106   0.0000    4055.581254    110357.9764 
 107   0.0000   18689.383838    508563.9891 

                    ********************************
                    * MULLIKEN POPULATION ANALYSIS *
                    ********************************

-----------------------
MULLIKEN ATOMIC CHARGES
-----------------------
   0 Zn:    2.000000
Sum of atomic charges:    2.0000000

--------------------------------
MULLIKEN REDUCED ORBITAL CHARGES
--------------------------------
  0 Zns       :     6.000000  s :     6.000000
      pz      :     4.000000  p :    12.000000
      px      :     4.000000
      py      :     4.000000
      dz2     :     2.000000  d :    10.000000
      dxz     :     2.000000
      dyz     :     2.000000
      dx2y2   :     2.000000
      dxy     :     2.000000
      f0      :     0.000000  f :     0.000000
      f+1     :     0.000000
      f-1     :     0.000000
      f+2     :     0.000000
      f-2     :     0.000000
      f+3     :     0.000000
      f-3     :     0.000000
      g0      :     0.000000  g :     0.000000
      g+1     :     0.000000
      g-1     :     0.000000
      g+2     :     0.000000
      g-2     :     0.000000
      g+3     :     0.000000
      g-3     :     0.000000
      g+4     :     0.000000
      g-4     :     0.000000


                     *******************************
                     * LOEWDIN POPULATION ANALYSIS *
                     *******************************

----------------------
LOEWDIN ATOMIC CHARGES
----------------------
   0 Zn:    2.000000

-------------------------------
LOEWDIN REDUCED ORBITAL CHARGES
-------------------------------
  0 Zns       :     6.000000  s :     6.000000
      pz      :     4.000000  p :    12.000000
      px      :     4.000000
      py      :     4.000000
      dz2     :     2.000000  d :    10.000000
      dxz     :     2.000000
      dyz     :     2.000000
      dx2y2   :     2.000000
      dxy     :     2.000000
      f0      :     0.000000  f :     0.000000
      f+1     :     0.000000
      f-1     :     0.000000
      f+2     :     0.000000
      f-2     :     0.000000
      f+3     :     0.000000
      f-3     :     0.000000
      g0      :     0.000000  g :     0.000000
      g+1     :     0.000000
      g-1     :     0.000000
      g+2     :     0.000000
      g-2     :     0.000000
      g+3     :     0.000000
      g-3     :     0.000000
      g+4     :     0.000000
      g-4     :     0.000000


                      *****************************
                      * MAYER POPULATION ANALYSIS *
                      *****************************

  NA   - Mulliken gross atomic population
  ZA   - Total nuclear charge
  QA   - Mulliken gross atomic charge
  VA   - Mayer's total valence
  BVA  - Mayer's bonded valence
  FA   - Mayer's free valence

  ATOM       NA         ZA         QA         VA         BVA        FA
  0 Zn    28.0000    30.0000     2.0000    -0.0000     0.0000    -0.0000

  Mayer bond orders larger than 0.1


-----------------------------------------------
ATOM BASIS FOR ELEMENT Zn
-----------------------------------------------
  NSH[30]   = 33;
  res=GAUSS_InitGTOSTO(BG,BS,30,NSH[30]);
  // Basis function for L=s
  (*BG)[30][ 0].l    = ((*BS)[30][ 0].l=0);
  (*BG)[30][ 0].ng   = 24;
  (*BG)[30][ 0].a[ 0]=5742307.15070000; (*BG)[30][ 0].d[ 0]= 3.685714114786;
  (*BG)[30][ 0].a[ 1]= 861450.78790000; (*BG)[30][ 0].d[ 1]= 3.525101989208;
  (*BG)[30][ 0].a[ 2]= 196346.05866000; (*BG)[30][ 0].d[ 2]= 4.207083917001;
  (*BG)[30][ 0].a[ 3]=  55682.87073700; (*BG)[30][ 0].d[ 3]= 5.549566119307;
  (*BG)[30][ 0].a[ 4]=  18183.90239400; (*BG)[30][ 0].d[ 4]= 7.612809421749;
  (*BG)[30][ 0].a[ 5]=   6569.64480190; (*BG)[30][ 0].d[ 5]=10.504766671432;
  (*BG)[30][ 0].a[ 6]=   2563.56132760; (*BG)[30][ 0].d[ 6]=13.882457671276;
  (*BG)[30][ 0].a[ 7]=   1063.11471760; (*BG)[30][ 0].d[ 7]=17.049877094499;
  (*BG)[30][ 0].a[ 8]=    462.89771078; (*BG)[30][ 0].d[ 8]=17.535560894928;
  (*BG)[30][ 0].a[ 9]=    209.52821049; (*BG)[30][ 0].d[ 9]=12.211226433224;
  (*BG)[30][ 0].a[10]=     97.24078799; (*BG)[30][ 0].d[10]= 2.401616966785;
  (*BG)[30][ 0].a[11]=   1929.26899920; (*BG)[30][ 0].d[11]= 0.203918281250;
  (*BG)[30][ 0].a[12]=    598.07122307; (*BG)[30][ 0].d[12]= 0.587605228117;
  (*BG)[30][ 0].a[13]=    229.69667336; (*BG)[30][ 0].d[13]= 1.826686882486;
  (*BG)[30][ 0].a[14]=     99.41681923; (*BG)[30][ 0].d[14]= 3.621319021916;
  (*BG)[30][ 0].a[15]=     44.24110142; (*BG)[30][ 0].d[15]= 0.780613857449;
  (*BG)[30][ 0].a[16]=     21.19436711; (*BG)[30][ 0].d[16]=-0.016520700485;
  (*BG)[30][ 0].a[17]=     10.15873160; (*BG)[30][ 0].d[17]= 0.008908444320;
  (*BG)[30][ 0].a[18]=      4.37461762; (*BG)[30][ 0].d[18]=-0.002285806629;
  (*BG)[30][ 0].a[19]=      2.09014891; (*BG)[30][ 0].d[19]= 0.000622773063;
  (*BG)[30][ 0].a[20]=      0.91869136; (*BG)[30][ 0].d[20]=-0.000122355774;
  (*BG)[30][ 0].a[21]=      0.19278661; (*BG)[30][ 0].d[21]= 0.000012877870;
  (*BG)[30][ 0].a[22]=      0.08732992; (*BG)[30][ 0].d[22]=-0.000005380452;
  (*BG)[30][ 0].a[23]=      0.03755222; (*BG)[30][ 0].d[23]= 0.000000905596;
  // Basis function for L=s
  (*BG)[30][ 1].l    = ((*BS)[30][ 1].l=0);
  (*BG)[30][ 1].ng   = 24;
  (*BG)[30][ 1].a[ 0]=5742307.15070000; (*BG)[30][ 1].d[ 0]= 1.157962363550;
  (*BG)[30][ 1].a[ 1]= 861450.78790000; (*BG)[30][ 1].d[ 1]= 1.107501912534;
  (*BG)[30][ 1].a[ 2]= 196346.05866000; (*BG)[30][ 1].d[ 2]= 1.321764164139;
  (*BG)[30][ 1].a[ 3]=  55682.87073700; (*BG)[30][ 1].d[ 3]= 1.743539650677;
  (*BG)[30][ 1].a[ 4]=  18183.90239400; (*BG)[30][ 1].d[ 4]= 2.391760868240;
  (*BG)[30][ 1].a[ 5]=   6569.64480190; (*BG)[30][ 1].d[ 5]= 3.300343994288;
  (*BG)[30][ 1].a[ 6]=   2563.56132760; (*BG)[30][ 1].d[ 6]= 4.361532933992;
  (*BG)[30][ 1].a[ 7]=   1063.11471760; (*BG)[30][ 1].d[ 7]= 5.356659622456;
  (*BG)[30][ 1].a[ 8]=    462.89771078; (*BG)[30][ 1].d[ 8]= 5.509249743113;
  (*BG)[30][ 1].a[ 9]=    209.52821049; (*BG)[30][ 1].d[ 9]= 3.836472439829;
  (*BG)[30][ 1].a[10]=     97.24078799; (*BG)[30][ 1].d[10]= 0.754530051054;
  (*BG)[30][ 1].a[11]=   1929.26899920; (*BG)[30][ 1].d[11]= 0.384305208969;
  (*BG)[30][ 1].a[12]=    598.07122307; (*BG)[30][ 1].d[12]= 1.406718838287;
  (*BG)[30][ 1].a[13]=    229.69667336; (*BG)[30][ 1].d[13]= 3.186820520124;
  (*BG)[30][ 1].a[14]=     99.41681923; (*BG)[30][ 1].d[14]= 3.579345053712;
  (*BG)[30][ 1].a[15]=     44.24110142; (*BG)[30][ 1].d[15]=-0.848696686033;
  (*BG)[30][ 1].a[16]=     21.19436711; (*BG)[30][ 1].d[16]=-3.814865791231;
  (*BG)[30][ 1].a[17]=     10.15873160; (*BG)[30][ 1].d[17]=-1.936453592063;
  (*BG)[30][ 1].a[18]=      4.37461762; (*BG)[30][ 1].d[18]=-0.163656580699;
  (*BG)[30][ 1].a[19]=      2.09014891; (*BG)[30][ 1].d[19]= 0.004087932998;
  (*BG)[30][ 1].a[20]=      0.91869136; (*BG)[30][ 1].d[20]=-0.001433536552;
  (*BG)[30][ 1].a[21]=      0.19278661; (*BG)[30][ 1].d[21]= 0.000090646712;
  (*BG)[30][ 1].a[22]=      0.08732992; (*BG)[30][ 1].d[22]=-0.000037898079;
  (*BG)[30][ 1].a[23]=      0.03755222; (*BG)[30][ 1].d[23]= 0.000006354139;
  // Basis function for L=s
  (*BG)[30][ 2].l    = ((*BS)[30][ 2].l=0);
  (*BG)[30][ 2].ng   = 24;
  (*BG)[30][ 2].a[ 0]=5742307.15070000; (*BG)[30][ 2].d[ 0]=-0.437482525135;
  (*BG)[30][ 2].a[ 1]= 861450.78790000; (*BG)[30][ 2].d[ 1]=-0.418418377435;
  (*BG)[30][ 2].a[ 2]= 196346.05866000; (*BG)[30][ 2].d[ 2]=-0.499367459913;
  (*BG)[30][ 2].a[ 3]=  55682.87073700; (*BG)[30][ 2].d[ 3]=-0.658715821051;
  (*BG)[30][ 2].a[ 4]=  18183.90239400; (*BG)[30][ 2].d[ 4]=-0.903616228899;
  (*BG)[30][ 2].a[ 5]=   6569.64480190; (*BG)[30][ 2].d[ 5]=-1.246882342540;
  (*BG)[30][ 2].a[ 6]=   2563.56132760; (*BG)[30][ 2].d[ 6]=-1.647803505093;
  (*BG)[30][ 2].a[ 7]=   1063.11471760; (*BG)[30][ 2].d[ 7]=-2.023766101290;
  (*BG)[30][ 2].a[ 8]=    462.89771078; (*BG)[30][ 2].d[ 8]=-2.081415221328;
  (*BG)[30][ 2].a[ 9]=    209.52821049; (*BG)[30][ 2].d[ 9]=-1.449433680593;
  (*BG)[30][ 2].a[10]=     97.24078799; (*BG)[30][ 2].d[10]=-0.285064283967;
  (*BG)[30][ 2].a[11]=   1929.26899920; (*BG)[30][ 2].d[11]=-0.162381836815;
  (*BG)[30][ 2].a[12]=    598.07122307; (*BG)[30][ 2].d[12]=-0.590341937182;
  (*BG)[30][ 2].a[13]=    229.69667336; (*BG)[30][ 2].d[13]=-1.370822574590;
  (*BG)[30][ 2].a[14]=     99.41681923; (*BG)[30][ 2].d[14]=-1.534300942920;
  (*BG)[30][ 2].a[15]=     44.24110142; (*BG)[30][ 2].d[15]= 0.382103722268;
  (*BG)[30][ 2].a[16]=     21.19436711; (*BG)[30][ 2].d[16]= 2.426516575620;
  (*BG)[30][ 2].a[17]=     10.15873160; (*BG)[30][ 2].d[17]= 1.773227925354;
  (*BG)[30][ 2].a[18]=      4.37461762; (*BG)[30][ 2].d[18]=-0.463305047496;
  (*BG)[30][ 2].a[19]=      2.09014891; (*BG)[30][ 2].d[19]=-0.887459610909;
  (*BG)[30][ 2].a[20]=      0.91869136; (*BG)[30][ 2].d[20]=-0.233622687003;
  (*BG)[30][ 2].a[21]=      0.19278661; (*BG)[30][ 2].d[21]=-0.002049948673;
  (*BG)[30][ 2].a[22]=      0.08732992; (*BG)[30][ 2].d[22]= 0.000472783196;
  (*BG)[30][ 2].a[23]=      0.03755222; (*BG)[30][ 2].d[23]=-0.000062599974;
  // Basis function for L=s
  (*BG)[30][ 3].l    = ((*BS)[30][ 3].l=0);
  (*BG)[30][ 3].ng   = 24;
  (*BG)[30][ 3].a[ 0]=5742307.15070000; (*BG)[30][ 3].d[ 0]=-0.100277943200;
  (*BG)[30][ 3].a[ 1]= 861450.78790000; (*BG)[30][ 3].d[ 1]=-0.095908137756;
  (*BG)[30][ 3].a[ 2]= 196346.05866000; (*BG)[30][ 3].d[ 2]=-0.114462953156;
  (*BG)[30][ 3].a[ 3]=  55682.87073700; (*BG)[30][ 3].d[ 3]=-0.150988128424;
  (*BG)[30][ 3].a[ 4]=  18183.90239400; (*BG)[30][ 3].d[ 4]=-0.207123191602;
  (*BG)[30][ 3].a[ 5]=   6569.64480190; (*BG)[30][ 3].d[ 5]=-0.285805236869;
  (*BG)[30][ 3].a[ 6]=   2563.56132760; (*BG)[30][ 3].d[ 6]=-0.377702735069;
  (*BG)[30][ 3].a[ 7]=   1063.11471760; (*BG)[30][ 3].d[ 7]=-0.463879333449;
  (*BG)[30][ 3].a[ 8]=    462.89771078; (*BG)[30][ 3].d[ 8]=-0.477093427390;
  (*BG)[30][ 3].a[ 9]=    209.52821049; (*BG)[30][ 3].d[ 9]=-0.332233220630;
  (*BG)[30][ 3].a[10]=     97.24078799; (*BG)[30][ 3].d[10]=-0.065341261499;
  (*BG)[30][ 3].a[11]=   1929.26899920; (*BG)[30][ 3].d[11]=-0.037629306863;
  (*BG)[30][ 3].a[12]=    598.07122307; (*BG)[30][ 3].d[12]=-0.137211850350;
  (*BG)[30][ 3].a[13]=    229.69667336; (*BG)[30][ 3].d[13]=-0.318816109426;
  (*BG)[30][ 3].a[14]=     99.41681923; (*BG)[30][ 3].d[14]=-0.358084897559;
  (*BG)[30][ 3].a[15]=     44.24110142; (*BG)[30][ 3].d[15]= 0.090392889264;
  (*BG)[30][ 3].a[16]=     21.19436711; (*BG)[30][ 3].d[16]= 0.594875078090;
  (*BG)[30][ 3].a[17]=     10.15873160; (*BG)[30][ 3].d[17]= 0.458031123800;
  (*BG)[30][ 3].a[18]=      4.37461762; (*BG)[30][ 3].d[18]=-0.148203556746;
  (*BG)[30][ 3].a[19]=      2.09014891; (*BG)[30][ 3].d[19]=-0.301477802910;
  (*BG)[30][ 3].a[20]=      0.91869136; (*BG)[30][ 3].d[20]=-0.172692769878;
  (*BG)[30][ 3].a[21]=      0.19278661; (*BG)[30][ 3].d[21]= 0.108892813529;
  (*BG)[30][ 3].a[22]=      0.08732992; (*BG)[30][ 3].d[22]= 0.068069393364;
  (*BG)[30][ 3].a[23]=      0.03755222; (*BG)[30][ 3].d[23]= 0.002680910657;
  // Basis function for L=s
  (*BG)[30][ 4].l    = ((*BS)[30][ 4].l=0);
  (*BG)[30][ 4].ng   = 24;
  (*BG)[30][ 4].a[ 0]=5742307.15070000; (*BG)[30][ 4].d[ 0]=-0.052095278474;
  (*BG)[30][ 4].a[ 1]= 861450.78790000; (*BG)[30][ 4].d[ 1]=-0.049825125893;
  (*BG)[30][ 4].a[ 2]= 196346.05866000; (*BG)[30][ 4].d[ 2]=-0.059464516615;
  (*BG)[30][ 4].a[ 3]=  55682.87073700; (*BG)[30][ 4].d[ 3]=-0.078439668240;
  (*BG)[30][ 4].a[ 4]=  18183.90239400; (*BG)[30][ 4].d[ 4]=-0.107602330089;
  (*BG)[30][ 4].a[ 5]=   6569.64480190; (*BG)[30][ 4].d[ 5]=-0.148478348566;
  (*BG)[30][ 4].a[ 6]=   2563.56132760; (*BG)[30][ 4].d[ 6]=-0.196219911735;
  (*BG)[30][ 4].a[ 7]=   1063.11471760; (*BG)[30][ 4].d[ 7]=-0.240989416845;
  (*BG)[30][ 4].a[ 8]=    462.89771078; (*BG)[30][ 4].d[ 8]=-0.247854255529;
  (*BG)[30][ 4].a[ 9]=    209.52821049; (*BG)[30][ 4].d[ 9]=-0.172598096795;
  (*BG)[30][ 4].a[10]=     97.24078799; (*BG)[30][ 4].d[10]=-0.033945363307;
  (*BG)[30][ 4].a[11]=   1929.26899920; (*BG)[30][ 4].d[11]=-0.020286005539;
  (*BG)[30][ 4].a[12]=    598.07122307; (*BG)[30][ 4].d[12]=-0.070157399258;
  (*BG)[30][ 4].a[13]=    229.69667336; (*BG)[30][ 4].d[13]=-0.169137023883;
  (*BG)[30][ 4].a[14]=     99.41681923; (*BG)[30][ 4].d[14]=-0.180686912815;
  (*BG)[30][ 4].a[15]=     44.24110142; (*BG)[30][ 4].d[15]= 0.037639958685;
  (*BG)[30][ 4].a[16]=     21.19436711; (*BG)[30][ 4].d[16]= 0.324107828178;
  (*BG)[30][ 4].a[17]=     10.15873160; (*BG)[30][ 4].d[17]= 0.224781349528;
  (*BG)[30][ 4].a[18]=      4.37461762; (*BG)[30][ 4].d[18]=-0.060699663262;
  (*BG)[30][ 4].a[19]=      2.09014891; (*BG)[30][ 4].d[19]=-0.179271394340;
  (*BG)[30][ 4].a[20]=      0.91869136; (*BG)[30][ 4].d[20]=-0.091511118968;
  (*BG)[30][ 4].a[21]=      0.19278661; (*BG)[30][ 4].d[21]= 0.057276389854;
  (*BG)[30][ 4].a[22]=      0.08732992; (*BG)[30][ 4].d[22]= 0.169394201236;
  (*BG)[30][ 4].a[23]=      0.03755222; (*BG)[30][ 4].d[23]=-0.120640632104;
  // Basis function for L=s
  (*BG)[30][ 5].l    = ((*BS)[30][ 5].l=0);
  (*BG)[30][ 5].ng   = 24;
  (*BG)[30][ 5].a[ 0]=5742307.15070000; (*BG)[30][ 5].d[ 0]=-0.098225297144;
  (*BG)[30][ 5].a[ 1]= 861450.78790000; (*BG)[30][ 5].d[ 1]=-0.093944939724;
  (*BG)[30][ 5].a[ 2]= 196346.05866000; (*BG)[30][ 5].d[ 2]=-0.112119946091;
  (*BG)[30][ 5].a[ 3]=  55682.87073700; (*BG)[30][ 5].d[ 3]=-0.147897466845;
  (*BG)[30][ 5].a[ 4]=  18183.90239400; (*BG)[30][ 5].d[ 4]=-0.202883469598;
  (*BG)[30][ 5].a[ 5]=   6569.64480190; (*BG)[30][ 5].d[ 5]=-0.279954927484;
  (*BG)[30][ 5].a[ 6]=   2563.56132760; (*BG)[30][ 5].d[ 6]=-0.369971323707;
  (*BG)[30][ 5].a[ 7]=   1063.11471760; (*BG)[30][ 5].d[ 7]=-0.454383924451;
  (*BG)[30][ 5].a[ 8]=    462.89771078; (*BG)[30][ 5].d[ 8]=-0.467327531614;
  (*BG)[30][ 5].a[ 9]=    209.52821049; (*BG)[30][ 5].d[ 9]=-0.325432550530;
  (*BG)[30][ 5].a[10]=     97.24078799; (*BG)[30][ 5].d[10]=-0.064003754182;
  (*BG)[30][ 5].a[11]=   1929.26899920; (*BG)[30][ 5].d[11]=-0.023812976845;
  (*BG)[30][ 5].a[12]=    598.07122307; (*BG)[30][ 5].d[12]=-0.156309164243;
  (*BG)[30][ 5].a[13]=    229.69667336; (*BG)[30][ 5].d[13]=-0.252264309219;
  (*BG)[30][ 5].a[14]=     99.41681923; (*BG)[30][ 5].d[14]=-0.452916143757;
  (*BG)[30][ 5].a[15]=     44.24110142; (*BG)[30][ 5].d[15]= 0.260418995057;
  (*BG)[30][ 5].a[16]=     21.19436711; (*BG)[30][ 5].d[16]= 0.339046191907;
  (*BG)[30][ 5].a[17]=     10.15873160; (*BG)[30][ 5].d[17]= 0.739131457503;
  (*BG)[30][ 5].a[18]=      4.37461762; (*BG)[30][ 5].d[18]=-0.492484128948;
  (*BG)[30][ 5].a[19]=      2.09014891; (*BG)[30][ 5].d[19]= 0.067205355444;
  (*BG)[30][ 5].a[20]=      0.91869136; (*BG)[30][ 5].d[20]=-0.521256047540;
  (*BG)[30][ 5].a[21]=      0.19278661; (*BG)[30][ 5].d[21]= 0.833744410514;
  (*BG)[30][ 5].a[22]=      0.08732992; (*BG)[30][ 5].d[22]=-0.616205767407;
  (*BG)[30][ 5].a[23]=      0.03755222; (*BG)[30][ 5].d[23]= 0.139933883709;
  // Basis function for L=s
  (*BG)[30][ 6].l    = ((*BS)[30][ 6].l=0);
  (*BG)[30][ 6].ng   = 24;
  (*BG)[30][ 6].a[ 0]=5742307.15070000; (*BG)[30][ 6].d[ 0]= 0.259755492232;
  (*BG)[30][ 6].a[ 1]= 861450.78790000; (*BG)[30][ 6].d[ 1]= 0.248436143949;
  (*BG)[30][ 6].a[ 2]= 196346.05866000; (*BG)[30][ 6].d[ 2]= 0.296499706621;
  (*BG)[30][ 6].a[ 3]=  55682.87073700; (*BG)[30][ 6].d[ 3]= 0.391112884532;
  (*BG)[30][ 6].a[ 4]=  18183.90239400; (*BG)[30][ 6].d[ 4]= 0.536522637684;
  (*BG)[30][ 6].a[ 5]=   6569.64480190; (*BG)[30][ 6].d[ 5]= 0.740337083274;
  (*BG)[30][ 6].a[ 6]=   2563.56132760; (*BG)[30][ 6].d[ 6]= 0.978384246170;
  (*BG)[30][ 6].a[ 7]=   1063.11471760; (*BG)[30][ 6].d[ 7]= 1.201612246433;
  (*BG)[30][ 6].a[ 8]=    462.89771078; (*BG)[30][ 6].d[ 8]= 1.235841443468;
  (*BG)[30][ 6].a[ 9]=    209.52821049; (*BG)[30][ 6].d[ 9]= 0.860602052719;
  (*BG)[30][ 6].a[10]=     97.24078799; (*BG)[30][ 6].d[10]= 0.169257076901;
  (*BG)[30][ 6].a[11]=   1929.26899920; (*BG)[30][ 6].d[11]= 0.242747258241;
  (*BG)[30][ 6].a[12]=    598.07122307; (*BG)[30][ 6].d[12]= 0.119053128762;
  (*BG)[30][ 6].a[13]=    229.69667336; (*BG)[30][ 6].d[13]= 1.503991463175;
  (*BG)[30][ 6].a[14]=     99.41681923; (*BG)[30][ 6].d[14]=-0.187029851981;
  (*BG)[30][ 6].a[15]=     44.24110142; (*BG)[30][ 6].d[15]= 1.678315939215;
  (*BG)[30][ 6].a[16]=     21.19436711; (*BG)[30][ 6].d[16]=-4.420363099576;
  (*BG)[30][ 6].a[17]=     10.15873160; (*BG)[30][ 6].d[17]= 1.995305417230;
  (*BG)[30][ 6].a[18]=      4.37461762; (*BG)[30][ 6].d[18]=-3.729107309064;
  (*BG)[30][ 6].a[19]=      2.09014891; (*BG)[30][ 6].d[19]= 6.053733357024;
  (*BG)[30][ 6].a[20]=      0.91869136; (*BG)[30][ 6].d[20]=-3.155899454268;
  (*BG)[30][ 6].a[21]=      0.19278661; (*BG)[30][ 6].d[21]= 0.672639025279;
  (*BG)[30][ 6].a[22]=      0.08732992; (*BG)[30][ 6].d[22]=-0.298117674301;
  (*BG)[30][ 6].a[23]=      0.03755222; (*BG)[30][ 6].d[23]= 0.050516048121;
  // Basis function for L=s
  (*BG)[30][ 7].l    = ((*BS)[30][ 7].l=0);
  (*BG)[30][ 7].ng   = 24;
  (*BG)[30][ 7].a[ 0]=5742307.15070000; (*BG)[30][ 7].d[ 0]= 0.528326884085;
  (*BG)[30][ 7].a[ 1]= 861450.78790000; (*BG)[30][ 7].d[ 1]= 0.505304017631;
  (*BG)[30][ 7].a[ 2]= 196346.05866000; (*BG)[30][ 7].d[ 2]= 0.603062382955;
  (*BG)[30][ 7].a[ 3]=  55682.87073700; (*BG)[30][ 7].d[ 3]= 0.795499836538;
  (*BG)[30][ 7].a[ 4]=  18183.90239400; (*BG)[30][ 7].d[ 4]= 1.091254436906;
  (*BG)[30][ 7].a[ 5]=   6569.64480190; (*BG)[30][ 7].d[ 5]= 1.505800632039;
  (*BG)[30][ 7].a[ 6]=   2563.56132760; (*BG)[30][ 7].d[ 6]= 1.989974093620;
  (*BG)[30][ 7].a[ 7]=   1063.11471760; (*BG)[30][ 7].d[ 7]= 2.444006279065;
  (*BG)[30][ 7].a[ 8]=    462.89771078; (*BG)[30][ 7].d[ 8]= 2.513626385492;
  (*BG)[30][ 7].a[ 9]=    209.52821049; (*BG)[30][ 7].d[ 9]= 1.750412270568;
  (*BG)[30][ 7].a[10]=     97.24078799; (*BG)[30][ 7].d[10]= 0.344258607508;
  (*BG)[30][ 7].a[11]=   1929.26899920; (*BG)[30][ 7].d[11]=-0.324888917278;
  (*BG)[30][ 7].a[12]=    598.07122307; (*BG)[30][ 7].d[12]= 1.625576374261;
  (*BG)[30][ 7].a[13]=    229.69667336; (*BG)[30][ 7].d[13]=-0.728402110113;
  (*BG)[30][ 7].a[14]=     99.41681923; (*BG)[30][ 7].d[14]= 6.160546027333;
  (*BG)[30][ 7].a[15]=     44.24110142; (*BG)[30][ 7].d[15]=-7.779041133296;
  (*BG)[30][ 7].a[16]=     21.19436711; (*BG)[30][ 7].d[16]= 7.287242108375;
  (*BG)[30][ 7].a[17]=     10.15873160; (*BG)[30][ 7].d[17]=-16.910898765829;
  (*BG)[30][ 7].a[18]=      4.37461762; (*BG)[30][ 7].d[18]=19.710658891208;
  (*BG)[30][ 7].a[19]=      2.09014891; (*BG)[30][ 7].d[19]=-11.260234331030;
  (*BG)[30][ 7].a[20]=      0.91869136; (*BG)[30][ 7].d[20]= 2.721463096231;
  (*BG)[30][ 7].a[21]=      0.19278661; (*BG)[30][ 7].d[21]=-0.314798352205;
  (*BG)[30][ 7].a[22]=      0.08732992; (*BG)[30][ 7].d[22]= 0.130075964083;
  (*BG)[30][ 7].a[23]=      0.03755222; (*BG)[30][ 7].d[23]=-0.021671892938;
  // Basis function for L=s
  (*BG)[30][ 8].l    = ((*BS)[30][ 8].l=0);
  (*BG)[30][ 8].ng   = 24;
  (*BG)[30][ 8].a[ 0]=5742307.15070000; (*BG)[30][ 8].d[ 0]=-0.830818594785;
  (*BG)[30][ 8].a[ 1]= 861450.78790000; (*BG)[30][ 8].d[ 1]=-0.794614066619;
  (*BG)[30][ 8].a[ 2]= 196346.05866000; (*BG)[30][ 8].d[ 2]=-0.948343642292;
  (*BG)[30][ 8].a[ 3]=  55682.87073700; (*BG)[30][ 8].d[ 3]=-1.250960487253;
  (*BG)[30][ 8].a[ 4]=  18183.90239400; (*BG)[30][ 8].d[ 4]=-1.716048350242;
  (*BG)[30][ 8].a[ 5]=   6569.64480190; (*BG)[30][ 8].d[ 5]=-2.367941520339;
  (*BG)[30][ 8].a[ 6]=   2563.56132760; (*BG)[30][ 8].d[ 6]=-3.129326804903;
  (*BG)[30][ 8].a[ 7]=   1063.11471760; (*BG)[30][ 8].d[ 7]=-3.843313531041;
  (*BG)[30][ 8].a[ 8]=    462.89771078; (*BG)[30][ 8].d[ 8]=-3.952794386043;
  (*BG)[30][ 8].a[ 9]=    209.52821049; (*BG)[30][ 8].d[ 9]=-2.752604697459;
  (*BG)[30][ 8].a[10]=     97.24078799; (*BG)[30][ 8].d[10]=-0.541362669869;
  (*BG)[30][ 8].a[11]=   1929.26899920; (*BG)[30][ 8].d[11]=-2.226930408404;
  (*BG)[30][ 8].a[12]=    598.07122307; (*BG)[30][ 8].d[12]= 1.860647008934;
  (*BG)[30][ 8].a[13]=    229.69667336; (*BG)[30][ 8].d[13]=-12.025770284681;
  (*BG)[30][ 8].a[14]=     99.41681923; (*BG)[30][ 8].d[14]=12.171241890405;
  (*BG)[30][ 8].a[15]=     44.24110142; (*BG)[30][ 8].d[15]=-27.848004712326;
  (*BG)[30][ 8].a[16]=     21.19436711; (*BG)[30][ 8].d[16]=57.098893414179;
  (*BG)[30][ 8].a[17]=     10.15873160; (*BG)[30][ 8].d[17]=-47.817532492967;
  (*BG)[30][ 8].a[18]=      4.37461762; (*BG)[30][ 8].d[18]=22.407966012869;
  (*BG)[30][ 8].a[19]=      2.09014891; (*BG)[30][ 8].d[19]=-7.972270014712;
  (*BG)[30][ 8].a[20]=      0.91869136; (*BG)[30][ 8].d[20]= 1.496995862555;
  (*BG)[30][ 8].a[21]=      0.19278661; (*BG)[30][ 8].d[21]=-0.157581805186;
  (*BG)[30][ 8].a[22]=      0.08732992; (*BG)[30][ 8].d[22]= 0.065182516272;
  (*BG)[30][ 8].a[23]=      0.03755222; (*BG)[30][ 8].d[23]=-0.010906157033;
  // Basis function for L=s
  (*BG)[30][ 9].l    = ((*BS)[30][ 9].l=0);
  (*BG)[30][ 9].ng   = 24;
  (*BG)[30][ 9].a[ 0]=5742307.15070000; (*BG)[30][ 9].d[ 0]=-1.817679175338;
  (*BG)[30][ 9].a[ 1]= 861450.78790000; (*BG)[30][ 9].d[ 1]=-1.738470287487;
  (*BG)[30][ 9].a[ 2]= 196346.05866000; (*BG)[30][ 9].d[ 2]=-2.074802490555;
  (*BG)[30][ 9].a[ 3]=  55682.87073700; (*BG)[30][ 9].d[ 3]=-2.736872815707;
  (*BG)[30][ 9].a[ 4]=  18183.90239400; (*BG)[30][ 9].d[ 4]=-3.754400021483;
  (*BG)[30][ 9].a[ 5]=   6569.64480190; (*BG)[30][ 9].d[ 5]=-5.180623083014;
  (*BG)[30][ 9].a[ 6]=   2563.56132760; (*BG)[30][ 9].d[ 6]=-6.846394871041;
  (*BG)[30][ 9].a[ 7]=   1063.11471760; (*BG)[30][ 9].d[ 7]=-8.408467279766;
  (*BG)[30][ 9].a[ 8]=    462.89771078; (*BG)[30][ 9].d[ 8]=-8.647991372613;
  (*BG)[30][ 9].a[ 9]=    209.52821049; (*BG)[30][ 9].d[ 9]=-6.022195781265;
  (*BG)[30][ 9].a[10]=     97.24078799; (*BG)[30][ 9].d[10]=-1.184402536852;
  (*BG)[30][ 9].a[11]=   1929.26899920; (*BG)[30][ 9].d[11]= 5.284920053814;
  (*BG)[30][ 9].a[12]=    598.07122307; (*BG)[30][ 9].d[12]=-13.996611640052;
  (*BG)[30][ 9].a[13]=    229.69667336; (*BG)[30][ 9].d[13]=23.062553902277;
  (*BG)[30][ 9].a[14]=     99.41681923; (*BG)[30][ 9].d[14]=-69.405603380412;
  (*BG)[30][ 9].a[15]=     44.24110142; (*BG)[30][ 9].d[15]=121.536649302465;
  (*BG)[30][ 9].a[16]=     21.19436711; (*BG)[30][ 9].d[16]=-96.438194634038;
  (*BG)[30][ 9].a[17]=     10.15873160; (*BG)[30][ 9].d[17]=43.515624358968;
  (*BG)[30][ 9].a[18]=      4.37461762; (*BG)[30][ 9].d[18]=-13.968748705404;
  (*BG)[30][ 9].a[19]=      2.09014891; (*BG)[30][ 9].d[19]= 4.358903589592;
  (*BG)[30][ 9].a[20]=      0.91869136; (*BG)[30][ 9].d[20]=-0.789857018677;
  (*BG)[30][ 9].a[21]=      0.19278661; (*BG)[30][ 9].d[21]= 0.083765883191;
  (*BG)[30][ 9].a[22]=      0.08732992; (*BG)[30][ 9].d[22]=-0.034822908290;
  (*BG)[30][ 9].a[23]=      0.03755222; (*BG)[30][ 9].d[23]= 0.005845218355;
  // Basis function for L=s
  (*BG)[30][10].l    = ((*BS)[30][10].l=0);
  (*BG)[30][10].ng   = 24;
  (*BG)[30][10].a[ 0]=5742307.15070000; (*BG)[30][10].d[ 0]=-1.920187308854;
  (*BG)[30][10].a[ 1]= 861450.78790000; (*BG)[30][10].d[ 1]=-1.836511430699;
  (*BG)[30][10].a[ 2]= 196346.05866000; (*BG)[30][10].d[ 2]=-2.191811109902;
  (*BG)[30][10].a[ 3]=  55682.87073700; (*BG)[30][10].d[ 3]=-2.891218933446;
  (*BG)[30][10].a[ 4]=  18183.90239400; (*BG)[30][10].d[ 4]=-3.966129651164;
  (*BG)[30][10].a[ 5]=   6569.64480190; (*BG)[30][10].d[ 5]=-5.472784653600;
  (*BG)[30][10].a[ 6]=   2563.56132760; (*BG)[30][10].d[ 6]=-7.232497748306;
  (*BG)[30][10].a[ 7]=   1063.11471760; (*BG)[30][10].d[ 7]=-8.882663330571;
  (*BG)[30][10].a[ 8]=    462.89771078; (*BG)[30][10].d[ 8]=-9.135695399976;
  (*BG)[30][10].a[ 9]=    209.52821049; (*BG)[30][10].d[ 9]=-6.361817898072;
  (*BG)[30][10].a[10]=     97.24078799; (*BG)[30][10].d[10]=-1.251196993779;
  (*BG)[30][10].a[11]=   1929.26899920; (*BG)[30][10].d[11]=-22.149884455433;
  (*BG)[30][10].a[12]=    598.07122307; (*BG)[30][10].d[12]=30.200199443252;
  (*BG)[30][10].a[13]=    229.69667336; (*BG)[30][10].d[13]=-141.577711731216;
  (*BG)[30][10].a[14]=     99.41681923; (*BG)[30][10].d[14]=205.315077933166;
  (*BG)[30][10].a[15]=     44.24110142; (*BG)[30][10].d[15]=-143.541559954330;
  (*BG)[30][10].a[16]=     21.19436711; (*BG)[30][10].d[16]=71.753881981917;
  (*BG)[30][10].a[17]=     10.15873160; (*BG)[30][10].d[17]=-25.805664443368;
  (*BG)[30][10].a[18]=      4.37461762; (*BG)[30][10].d[18]= 7.593709064223;
  (*BG)[30][10].a[19]=      2.09014891; (*BG)[30][10].d[19]=-2.345245193156;
  (*BG)[30][10].a[20]=      0.91869136; (*BG)[30][10].d[20]= 0.428151040574;
  (*BG)[30][10].a[21]=      0.19278661; (*BG)[30][10].d[21]=-0.045997504120;
  (*BG)[30][10].a[22]=      0.08732992; (*BG)[30][10].d[22]= 0.019176792637;
  (*BG)[30][10].a[23]=      0.03755222; (*BG)[30][10].d[23]=-0.003224012081;
  // Basis function for L=s
  (*BG)[30][11].l    = ((*BS)[30][11].l=0);
  (*BG)[30][11].ng   = 24;
  (*BG)[30][11].a[ 0]=5742307.15070000; (*BG)[30][11].d[ 0]=-7.827510117067;
  (*BG)[30][11].a[ 1]= 861450.78790000; (*BG)[30][11].d[ 1]=-7.486411215000;
  (*BG)[30][11].a[ 2]= 196346.05866000; (*BG)[30][11].d[ 2]=-8.934765664966;
  (*BG)[30][11].a[ 3]=  55682.87073700; (*BG)[30][11].d[ 3]=-11.785853050820;
  (*BG)[30][11].a[ 4]=  18183.90239400; (*BG)[30][11].d[ 4]=-16.167651888404;
  (*BG)[30][11].a[ 5]=   6569.64480190; (*BG)[30][11].d[ 5]=-22.309426297659;
  (*BG)[30][11].a[ 6]=   2563.56132760; (*BG)[30][11].d[ 6]=-29.482774433245;
  (*BG)[30][11].a[ 7]=   1063.11471760; (*BG)[30][11].d[ 7]=-36.209559747605;
  (*BG)[30][11].a[ 8]=    462.89771078; (*BG)[30][11].d[ 8]=-37.241027393535;
  (*BG)[30][11].a[ 9]=    209.52821049; (*BG)[30][11].d[ 9]=-25.933508533503;
  (*BG)[30][11].a[10]=     97.24078799; (*BG)[30][11].d[10]=-5.100417590560;
  (*BG)[30][11].a[11]=   1929.26899920; (*BG)[30][11].d[11]=64.851670100722;
  (*BG)[30][11].a[12]=    598.07122307; (*BG)[30][11].d[12]=-213.805214811890;
  (*BG)[30][11].a[13]=    229.69667336; (*BG)[30][11].d[13]=327.180171016821;
  (*BG)[30][11].a[14]=     99.41681923; (*BG)[30][11].d[14]=-181.305665416345;
  (*BG)[30][11].a[15]=     44.24110142; (*BG)[30][11].d[15]=91.031548771930;
  (*BG)[30][11].a[16]=     21.19436711; (*BG)[30][11].d[16]=-39.719453159328;
  (*BG)[30][11].a[17]=     10.15873160; (*BG)[30][11].d[17]=13.765397105254;
  (*BG)[30][11].a[18]=      4.37461762; (*BG)[30][11].d[18]=-4.056951777108;
  (*BG)[30][11].a[19]=      2.09014891; (*BG)[30][11].d[19]= 1.264543044669;
  (*BG)[30][11].a[20]=      0.91869136; (*BG)[30][11].d[20]=-0.232815901720;
  (*BG)[30][11].a[21]=      0.19278661; (*BG)[30][11].d[21]= 0.025201127886;
  (*BG)[30][11].a[22]=      0.08732992; (*BG)[30][11].d[22]=-0.010520972515;
  (*BG)[30][11].a[23]=      0.03755222; (*BG)[30][11].d[23]= 0.001770051711;
  // Basis function for L=s
  (*BG)[30][12].l    = ((*BS)[30][12].l=0);
  (*BG)[30][12].ng   = 24;
  (*BG)[30][12].a[ 0]=5742307.15070000; (*BG)[30][12].d[ 0]=-0.323448751670;
  (*BG)[30][12].a[ 1]= 861450.78790000; (*BG)[30][12].d[ 1]=-0.309353846340;
  (*BG)[30][12].a[ 2]= 196346.05866000; (*BG)[30][12].d[ 2]=-0.369202818978;
  (*BG)[30][12].a[ 3]=  55682.87073700; (*BG)[30][12].d[ 3]=-0.487015589842;
  (*BG)[30][12].a[ 4]=  18183.90239400; (*BG)[30][12].d[ 4]=-0.668080493354;
  (*BG)[30][12].a[ 5]=   6569.64480190; (*BG)[30][12].d[ 5]=-0.921871192567;
  (*BG)[30][12].a[ 6]=   2563.56132760; (*BG)[30][12].d[ 6]=-1.218288631197;
  (*BG)[30][12].a[ 7]=   1063.11471760; (*BG)[30][12].d[ 7]=-1.496253179328;
  (*BG)[30][12].a[ 8]=    462.89771078; (*BG)[30][12].d[ 8]=-1.538875535285;
  (*BG)[30][12].a[ 9]=    209.52821049; (*BG)[30][12].d[ 9]=-1.071625694012;
  (*BG)[30][12].a[10]=     97.24078799; (*BG)[30][12].d[10]=-0.210759702382;
  (*BG)[30][12].a[11]=   1929.26899920; (*BG)[30][12].d[11]=455.857727296363;
  (*BG)[30][12].a[12]=    598.07122307; (*BG)[30][12].d[12]=-363.259200098146;
  (*BG)[30][12].a[13]=    229.69667336; (*BG)[30][12].d[13]=208.586791318137;
  (*BG)[30][12].a[14]=     99.41681923; (*BG)[30][12].d[14]=-101.651790214489;
  (*BG)[30][12].a[15]=     44.24110142; (*BG)[30][12].d[15]=45.973023351788;
  (*BG)[30][12].a[16]=     21.19436711; (*BG)[30][12].d[16]=-19.926145768354;
  (*BG)[30][12].a[17]=     10.15873160; (*BG)[30][12].d[17]= 6.972955929004;
  (*BG)[30][12].a[18]=      4.37461762; (*BG)[30][12].d[18]=-2.079562720637;
  (*BG)[30][12].a[19]=      2.09014891; (*BG)[30][12].d[19]= 0.652878189976;
  (*BG)[30][12].a[20]=      0.91869136; (*BG)[30][12].d[20]=-0.120779308634;
  (*BG)[30][12].a[21]=      0.19278661; (*BG)[30][12].d[21]= 0.013121602494;
  (*BG)[30][12].a[22]=      0.08732992; (*BG)[30][12].d[22]=-0.005481366848;
  (*BG)[30][12].a[23]=      0.03755222; (*BG)[30][12].d[23]= 0.000922472718;
  // Basis function for L=p
  (*BG)[30][13].l    = ((*BS)[30][13].l=1);
  (*BG)[30][13].ng   = 18;
  (*BG)[30][13].a[ 0]=  10690.44510700; (*BG)[30][13].d[ 0]=49.059039047643;
  (*BG)[30][13].a[ 1]=   2532.31593400; (*BG)[30][13].d[ 1]=48.255608786549;
  (*BG)[30][13].a[ 2]=    821.94295003; (*BG)[30][13].d[ 2]=59.250483555690;
  (*BG)[30][13].a[ 3]=    313.42757800; (*BG)[30][13].d[ 3]=69.441830440457;
  (*BG)[30][13].a[ 4]=    132.18314247; (*BG)[30][13].d[ 4]=72.529022546013;
  (*BG)[30][13].a[ 5]=     59.62055439; (*BG)[30][13].d[ 5]=60.440559955231;
  (*BG)[30][13].a[ 6]=     28.01948887; (*BG)[30][13].d[ 6]=35.502874527323;
  (*BG)[30][13].a[ 7]=     13.51170485; (*BG)[30][13].d[ 7]=11.157234621107;
  (*BG)[30][13].a[ 8]=      6.40537113; (*BG)[30][13].d[ 8]= 4.121914321668;
  (*BG)[30][13].a[ 9]=     89.98113192; (*BG)[30][13].d[ 9]=-0.237261252180;
  (*BG)[30][13].a[10]=     32.24176711; (*BG)[30][13].d[10]=-0.370198052842;
  (*BG)[30][13].a[11]=      6.38094486; (*BG)[30][13].d[11]=-2.883469898271;
  (*BG)[30][13].a[12]=      2.94779284; (*BG)[30][13].d[12]= 0.026599815315;
  (*BG)[30][13].a[13]=      1.32008550; (*BG)[30][13].d[13]= 0.002334622209;
  (*BG)[30][13].a[14]=      0.54424674; (*BG)[30][13].d[14]=-0.000053548362;
  (*BG)[30][13].a[15]=      0.25799972; (*BG)[30][13].d[15]= 0.000032007057;
  (*BG)[30][13].a[16]=      0.09286319; (*BG)[30][13].d[16]=-0.000002704653;
  (*BG)[30][13].a[17]=      0.03405934; (*BG)[30][13].d[17]= 0.000000235367;
  // Basis function for L=p
  (*BG)[30][14].l    = ((*BS)[30][14].l=1);
  (*BG)[30][14].ng   = 18;
  (*BG)[30][14].a[ 0]=  10690.44510700; (*BG)[30][14].d[ 0]=18.651806347845;
  (*BG)[30][14].a[ 1]=   2532.31593400; (*BG)[30][14].d[ 1]=18.346349373252;
  (*BG)[30][14].a[ 2]=    821.94295003; (*BG)[30][14].d[ 2]=22.526502083004;
  (*BG)[30][14].a[ 3]=    313.42757800; (*BG)[30][14].d[ 3]=26.401160702669;
  (*BG)[30][14].a[ 4]=    132.18314247; (*BG)[30][14].d[ 4]=27.574883434080;
  (*BG)[30][14].a[ 5]=     59.62055439; (*BG)[30][14].d[ 5]=22.978958449339;
  (*BG)[30][14].a[ 6]=     28.01948887; (*BG)[30][14].d[ 6]=13.497874261915;
  (*BG)[30][14].a[ 7]=     13.51170485; (*BG)[30][14].d[ 7]= 4.241880468312;
  (*BG)[30][14].a[ 8]=      6.40537113; (*BG)[30][14].d[ 8]= 1.567114831489;
  (*BG)[30][14].a[ 9]=     89.98113192; (*BG)[30][14].d[ 9]= 2.121967621650;
  (*BG)[30][14].a[10]=     32.24176711; (*BG)[30][14].d[10]= 2.466058599613;
  (*BG)[30][14].a[11]=      6.38094486; (*BG)[30][14].d[11]=-4.620036766204;
  (*BG)[30][14].a[12]=      2.94779284; (*BG)[30][14].d[12]=-2.660593458696;
  (*BG)[30][14].a[13]=      1.32008550; (*BG)[30][14].d[13]=-0.789246779590;
  (*BG)[30][14].a[14]=      0.54424674; (*BG)[30][14].d[14]=-0.058026330021;
  (*BG)[30][14].a[15]=      0.25799972; (*BG)[30][14].d[15]= 0.001041594467;
  (*BG)[30][14].a[16]=      0.09286319; (*BG)[30][14].d[16]=-0.000120799307;
  (*BG)[30][14].a[17]=      0.03405934; (*BG)[30][14].d[17]= 0.000009583807;
  // Basis function for L=p
  (*BG)[30][15].l    = ((*BS)[30][15].l=1);
  (*BG)[30][15].ng   = 18;
  (*BG)[30][15].a[ 0]=  10690.44510700; (*BG)[30][15].d[ 0]= 3.185733637691;
  (*BG)[30][15].a[ 1]=   2532.31593400; (*BG)[30][15].d[ 1]= 3.133561502688;
  (*BG)[30][15].a[ 2]=    821.94295003; (*BG)[30][15].d[ 2]= 3.847532731522;
  (*BG)[30][15].a[ 3]=    313.42757800; (*BG)[30][15].d[ 3]= 4.509325486016;
  (*BG)[30][15].a[ 4]=    132.18314247; (*BG)[30][15].d[ 4]= 4.709797650323;
  (*BG)[30][15].a[ 5]=     59.62055439; (*BG)[30][15].d[ 5]= 3.924812402935;
  (*BG)[30][15].a[ 6]=     28.01948887; (*BG)[30][15].d[ 6]= 2.305440624440;
  (*BG)[30][15].a[ 7]=     13.51170485; (*BG)[30][15].d[ 7]= 0.724514346919;
  (*BG)[30][15].a[ 8]=      6.40537113; (*BG)[30][15].d[ 8]= 0.267663642850;
  (*BG)[30][15].a[ 9]=     89.98113192; (*BG)[30][15].d[ 9]= 0.454402434315;
  (*BG)[30][15].a[10]=     32.24176711; (*BG)[30][15].d[10]= 0.479545485590;
  (*BG)[30][15].a[11]=      6.38094486; (*BG)[30][15].d[11]=-0.893353690455;
  (*BG)[30][15].a[12]=      2.94779284; (*BG)[30][15].d[12]=-0.563766131280;
  (*BG)[30][15].a[13]=      1.32008550; (*BG)[30][15].d[13]=-0.168592808438;
  (*BG)[30][15].a[14]=      0.54424674; (*BG)[30][15].d[14]=-0.018127684844;
  (*BG)[30][15].a[15]=      0.25799972; (*BG)[30][15].d[15]= 0.081053368845;
  (*BG)[30][15].a[16]=      0.09286319; (*BG)[30][15].d[16]= 0.049711340888;
  (*BG)[30][15].a[17]=      0.03405934; (*BG)[30][15].d[17]= 0.002930354345;
  // Basis function for L=p
  (*BG)[30][16].l    = ((*BS)[30][16].l=1);
  (*BG)[30][16].ng   = 18;
  (*BG)[30][16].a[ 0]=  10690.44510700; (*BG)[30][16].d[ 0]= 2.098109264703;
  (*BG)[30][16].a[ 1]=   2532.31593400; (*BG)[30][16].d[ 1]= 2.063748940753;
  (*BG)[30][16].a[ 2]=    821.94295003; (*BG)[30][16].d[ 2]= 2.533967050712;
  (*BG)[30][16].a[ 3]=    313.42757800; (*BG)[30][16].d[ 3]= 2.969820661664;
  (*BG)[30][16].a[ 4]=    132.18314247; (*BG)[30][16].d[ 4]= 3.101850690876;
  (*BG)[30][16].a[ 5]=     59.62055439; (*BG)[30][16].d[ 5]= 2.584863080640;
  (*BG)[30][16].a[ 6]=     28.01948887; (*BG)[30][16].d[ 6]= 1.518352405905;
  (*BG)[30][16].a[ 7]=     13.51170485; (*BG)[30][16].d[ 7]= 0.477161758188;
  (*BG)[30][16].a[ 8]=      6.40537113; (*BG)[30][16].d[ 8]= 0.176282022528;
  (*BG)[30][16].a[ 9]=     89.98113192; (*BG)[30][16].d[ 9]= 0.246882522730;
  (*BG)[30][16].a[10]=     32.24176711; (*BG)[30][16].d[10]= 0.301785271445;
  (*BG)[30][16].a[11]=      6.38094486; (*BG)[30][16].d[11]=-0.611149685852;
  (*BG)[30][16].a[12]=      2.94779284; (*BG)[30][16].d[12]=-0.343779381429;
  (*BG)[30][16].a[13]=      1.32008550; (*BG)[30][16].d[13]=-0.139022911479;
  (*BG)[30][16].a[14]=      0.54424674; (*BG)[30][16].d[14]= 0.009515412389;
  (*BG)[30][16].a[15]=      0.25799972; (*BG)[30][16].d[15]= 0.049095067042;
  (*BG)[30][16].a[16]=      0.09286319; (*BG)[30][16].d[16]= 0.065142943852;
  (*BG)[30][16].a[17]=      0.03405934; (*BG)[30][16].d[17]=-0.029063965348;
  // Basis function for L=p
  (*BG)[30][17].l    = ((*BS)[30][17].l=1);
  (*BG)[30][17].ng   = 18;
  (*BG)[30][17].a[ 0]=  10690.44510700; (*BG)[30][17].d[ 0]= 3.945321169204;
  (*BG)[30][17].a[ 1]=   2532.31593400; (*BG)[30][17].d[ 1]= 3.880709418167;
  (*BG)[30][17].a[ 2]=    821.94295003; (*BG)[30][17].d[ 2]= 4.764915734098;
  (*BG)[30][17].a[ 3]=    313.42757800; (*BG)[30][17].d[ 3]= 5.584502448142;
  (*BG)[30][17].a[ 4]=    132.18314247; (*BG)[30][17].d[ 4]= 5.832774012443;
  (*BG)[30][17].a[ 5]=     59.62055439; (*BG)[30][17].d[ 5]= 4.860621514383;
  (*BG)[30][17].a[ 6]=     28.01948887; (*BG)[30][17].d[ 6]= 2.855136283942;
  (*BG)[30][17].a[ 7]=     13.51170485; (*BG)[30][17].d[ 7]= 0.897263272884;
  (*BG)[30][17].a[ 8]=      6.40537113; (*BG)[30][17].d[ 8]= 0.331483782533;
  (*BG)[30][17].a[ 9]=     89.98113192; (*BG)[30][17].d[ 9]= 1.508720773328;
  (*BG)[30][17].a[10]=     32.24176711; (*BG)[30][17].d[10]= 0.876494677740;
  (*BG)[30][17].a[11]=      6.38094486; (*BG)[30][17].d[11]=-0.822249104113;
  (*BG)[30][17].a[12]=      2.94779284; (*BG)[30][17].d[12]=-1.278928950292;
  (*BG)[30][17].a[13]=      1.32008550; (*BG)[30][17].d[13]= 0.220841286751;
  (*BG)[30][17].a[14]=      0.54424674; (*BG)[30][17].d[14]=-0.506344340977;
  (*BG)[30][17].a[15]=      0.25799972; (*BG)[30][17].d[15]= 0.639747846217;
  (*BG)[30][17].a[16]=      0.09286319; (*BG)[30][17].d[16]=-0.175101295776;
  (*BG)[30][17].a[17]=      0.03405934; (*BG)[30][17].d[17]= 0.021611336527;
  // Basis function for L=p
  (*BG)[30][18].l    = ((*BS)[30][18].l=1);
  (*BG)[30][18].ng   = 18;
  (*BG)[30][18].a[ 0]=  10690.44510700; (*BG)[30][18].d[ 0]=10.064052959114;
  (*BG)[30][18].a[ 1]=   2532.31593400; (*BG)[30][18].d[ 1]= 9.899235937550;
  (*BG)[30][18].a[ 2]=    821.94295003; (*BG)[30][18].d[ 2]=12.154742855409;
  (*BG)[30][18].a[ 3]=    313.42757800; (*BG)[30][18].d[ 3]=14.245412725102;
  (*BG)[30][18].a[ 4]=    132.18314247; (*BG)[30][18].d[ 4]=14.878724454162;
  (*BG)[30][18].a[ 5]=     59.62055439; (*BG)[30][18].d[ 5]=12.398877109623;
  (*BG)[30][18].a[ 6]=     28.01948887; (*BG)[30][18].d[ 6]= 7.283118796859;
  (*BG)[30][18].a[ 7]=     13.51170485; (*BG)[30][18].d[ 7]= 2.288813688239;
  (*BG)[30][18].a[ 8]=      6.40537113; (*BG)[30][18].d[ 8]= 0.845576367403;
  (*BG)[30][18].a[ 9]=     89.98113192; (*BG)[30][18].d[ 9]=-2.636703001928;
  (*BG)[30][18].a[10]=     32.24176711; (*BG)[30][18].d[10]= 0.395746625145;
  (*BG)[30][18].a[11]=      6.38094486; (*BG)[30][18].d[11]=-4.449847873490;
  (*BG)[30][18].a[12]=      2.94779284; (*BG)[30][18].d[12]= 0.714474091299;
  (*BG)[30][18].a[13]=      1.32008550; (*BG)[30][18].d[13]=-3.052269702018;
  (*BG)[30][18].a[14]=      0.54424674; (*BG)[30][18].d[14]= 2.676329932643;
  (*BG)[30][18].a[15]=      0.25799972; (*BG)[30][18].d[15]=-0.929965465980;
  (*BG)[30][18].a[16]=      0.09286319; (*BG)[30][18].d[16]= 0.108514458755;
  (*BG)[30][18].a[17]=      0.03405934; (*BG)[30][18].d[17]=-0.009546724154;
  // Basis function for L=p
  (*BG)[30][19].l    = ((*BS)[30][19].l=1);
  (*BG)[30][19].ng   = 18;
  (*BG)[30][19].a[ 0]=  10690.44510700; (*BG)[30][19].d[ 0]= 9.987164172563;
  (*BG)[30][19].a[ 1]=   2532.31593400; (*BG)[30][19].d[ 1]= 9.823606343577;
  (*BG)[30][19].a[ 2]=    821.94295003; (*BG)[30][19].d[ 2]=12.061881318134;
  (*BG)[30][19].a[ 3]=    313.42757800; (*BG)[30][19].d[ 3]=14.136578590106;
  (*BG)[30][19].a[ 4]=    132.18314247; (*BG)[30][19].d[ 4]=14.765051853932;
  (*BG)[30][19].a[ 5]=     59.62055439; (*BG)[30][19].d[ 5]=12.304150400669;
  (*BG)[30][19].a[ 6]=     28.01948887; (*BG)[30][19].d[ 6]= 7.227476187577;
  (*BG)[30][19].a[ 7]=     13.51170485; (*BG)[30][19].d[ 7]= 2.271327283125;
  (*BG)[30][19].a[ 8]=      6.40537113; (*BG)[30][19].d[ 8]= 0.839116212524;
  (*BG)[30][19].a[ 9]=     89.98113192; (*BG)[30][19].d[ 9]=16.888432045990;
  (*BG)[30][19].a[10]=     32.24176711; (*BG)[30][19].d[10]= 6.037236179778;
  (*BG)[30][19].a[11]=      6.38094486; (*BG)[30][19].d[11]= 1.949721681189;
  (*BG)[30][19].a[12]=      2.94779284; (*BG)[30][19].d[12]=-14.651487346728;
  (*BG)[30][19].a[13]=      1.32008550; (*BG)[30][19].d[13]= 8.975014404128;
  (*BG)[30][19].a[14]=      0.54424674; (*BG)[30][19].d[14]=-2.564017797928;
  (*BG)[30][19].a[15]=      0.25799972; (*BG)[30][19].d[15]= 0.571307724176;
  (*BG)[30][19].a[16]=      0.09286319; (*BG)[30][19].d[16]=-0.053743197990;
  (*BG)[30][19].a[17]=      0.03405934; (*BG)[30][19].d[17]= 0.004556808960;
  // Basis function for L=p
  (*BG)[30][20].l    = ((*BS)[30][20].l=1);
  (*BG)[30][20].ng   = 18;
  (*BG)[30][20].a[ 0]=  10690.44510700; (*BG)[30][20].d[ 0]=49.707941343990;
  (*BG)[30][20].a[ 1]=   2532.31593400; (*BG)[30][20].d[ 1]=48.893884137251;
  (*BG)[30][20].a[ 2]=    821.94295003; (*BG)[30][20].d[ 2]=60.034187753435;
  (*BG)[30][20].a[ 3]=    313.42757800; (*BG)[30][20].d[ 3]=70.360335248340;
  (*BG)[30][20].a[ 4]=    132.18314247; (*BG)[30][20].d[ 4]=73.488361542365;
  (*BG)[30][20].a[ 5]=     59.62055439; (*BG)[30][20].d[ 5]=61.240005254381;
  (*BG)[30][20].a[ 6]=     28.01948887; (*BG)[30][20].d[ 6]=35.972469881307;
  (*BG)[30][20].a[ 7]=     13.51170485; (*BG)[30][20].d[ 7]=11.304810996573;
  (*BG)[30][20].a[ 8]=      6.40537113; (*BG)[30][20].d[ 8]= 4.176434746866;
  (*BG)[30][20].a[ 9]=     89.98113192; (*BG)[30][20].d[ 9]=-39.806067019145;
  (*BG)[30][20].a[10]=     32.24176711; (*BG)[30][20].d[10]=-1.327816233894;
  (*BG)[30][20].a[11]=      6.38094486; (*BG)[30][20].d[11]=-52.933757162067;
  (*BG)[30][20].a[12]=      2.94779284; (*BG)[30][20].d[12]=26.467076862723;
  (*BG)[30][20].a[13]=      1.32008550; (*BG)[30][20].d[13]=-7.212833513843;
  (*BG)[30][20].a[14]=      0.54424674; (*BG)[30][20].d[14]= 1.420969625170;
  (*BG)[30][20].a[15]=      0.25799972; (*BG)[30][20].d[15]=-0.288545709437;
  (*BG)[30][20].a[16]=      0.09286319; (*BG)[30][20].d[16]= 0.026738999806;
  (*BG)[30][20].a[17]=      0.03405934; (*BG)[30][20].d[17]=-0.002286190357;
  // Basis function for L=p
  (*BG)[30][21].l    = ((*BS)[30][21].l=1);
  (*BG)[30][21].ng   = 18;
  (*BG)[30][21].a[ 0]=  10690.44510700; (*BG)[30][21].d[ 0]=-95.205866062256;
  (*BG)[30][21].a[ 1]=   2532.31593400; (*BG)[30][21].d[ 1]=-93.646698265394;
  (*BG)[30][21].a[ 2]=    821.94295003; (*BG)[30][21].d[ 2]=-114.983776915173;
  (*BG)[30][21].a[ 3]=    313.42757800; (*BG)[30][21].d[ 3]=-134.761498316583;
  (*BG)[30][21].a[ 4]=    132.18314247; (*BG)[30][21].d[ 4]=-140.752622558226;
  (*BG)[30][21].a[ 5]=     59.62055439; (*BG)[30][21].d[ 5]=-117.293285142363;
  (*BG)[30][21].a[ 6]=     28.01948887; (*BG)[30][21].d[ 6]=-68.898249592514;
  (*BG)[30][21].a[ 7]=     13.51170485; (*BG)[30][21].d[ 7]=-21.652160449590;
  (*BG)[30][21].a[ 8]=      6.40537113; (*BG)[30][21].d[ 8]=-7.999146139975;
  (*BG)[30][21].a[ 9]=     89.98113192; (*BG)[30][21].d[ 9]=796.301804305365;
  (*BG)[30][21].a[10]=     32.24176711; (*BG)[30][21].d[10]=-50.625131790302;
  (*BG)[30][21].a[11]=      6.38094486; (*BG)[30][21].d[11]=37.576033426674;
  (*BG)[30][21].a[12]=      2.94779284; (*BG)[30][21].d[12]=-10.768265488795;
  (*BG)[30][21].a[13]=      1.32008550; (*BG)[30][21].d[13]= 2.539254915107;
  (*BG)[30][21].a[14]=      0.54424674; (*BG)[30][21].d[14]=-0.496330065087;
  (*BG)[30][21].a[15]=      0.25799972; (*BG)[30][21].d[15]= 0.103190096267;
  (*BG)[30][21].a[16]=      0.09286319; (*BG)[30][21].d[16]=-0.009812423540;
  (*BG)[30][21].a[17]=      0.03405934; (*BG)[30][21].d[17]= 0.000849286417;
  // Basis function for L=p
  (*BG)[30][22].l    = ((*BS)[30][22].l=1);
  (*BG)[30][22].ng   = 18;
  (*BG)[30][22].a[ 0]=  10690.44510700; (*BG)[30][22].d[ 0]=-621.430550704509;
  (*BG)[30][22].a[ 1]=   2532.31593400; (*BG)[30][22].d[ 1]=-611.253504449703;
  (*BG)[30][22].a[ 2]=    821.94295003; (*BG)[30][22].d[ 2]=-750.525516607932;
  (*BG)[30][22].a[ 3]=    313.42757800; (*BG)[30][22].d[ 3]=-879.619245917866;
  (*BG)[30][22].a[ 4]=    132.18314247; (*BG)[30][22].d[ 4]=-918.724689634838;
  (*BG)[30][22].a[ 5]=     59.62055439; (*BG)[30][22].d[ 5]=-765.600207158414;
  (*BG)[30][22].a[ 6]=     28.01948887; (*BG)[30][22].d[ 6]=-449.714696769371;
  (*BG)[30][22].a[ 7]=     13.51170485; (*BG)[30][22].d[ 7]=-141.328623420458;
  (*BG)[30][22].a[ 8]=      6.40537113; (*BG)[30][22].d[ 8]=-52.212263766187;
  (*BG)[30][22].a[ 9]=     89.98113192; (*BG)[30][22].d[ 9]=1174.130406835700;
  (*BG)[30][22].a[10]=     32.24176711; (*BG)[30][22].d[10]=892.391773890467;
  (*BG)[30][22].a[11]=      6.38094486; (*BG)[30][22].d[11]=117.370131686641;
  (*BG)[30][22].a[12]=      2.94779284; (*BG)[30][22].d[12]=-18.657858006735;
  (*BG)[30][22].a[13]=      1.32008550; (*BG)[30][22].d[13]= 4.057953690792;
  (*BG)[30][22].a[14]=      0.54424674; (*BG)[30][22].d[14]=-0.772955436249;
  (*BG)[30][22].a[15]=      0.25799972; (*BG)[30][22].d[15]= 0.159759621946;
  (*BG)[30][22].a[16]=      0.09286319; (*BG)[30][22].d[16]=-0.015164989722;
  (*BG)[30][22].a[17]=      0.03405934; (*BG)[30][22].d[17]= 0.001312398162;
  // Basis function for L=d
  (*BG)[30][23].l    = ((*BS)[30][23].l=2);
  (*BG)[30][23].ng   = 10;
  (*BG)[30][23].a[ 0]=    305.22298937; (*BG)[30][23].d[ 0]=68.522332873700;
  (*BG)[30][23].a[ 1]=     91.46827320; (*BG)[30][23].d[ 1]=69.110894729751;
  (*BG)[30][23].a[ 2]=     34.98698597; (*BG)[30][23].d[ 2]=58.391637563975;
  (*BG)[30][23].a[ 3]=     14.84941519; (*BG)[30][23].d[ 3]=39.293388625963;
  (*BG)[30][23].a[ 4]=      6.68585457; (*BG)[30][23].d[ 4]=19.581476123223;
  (*BG)[30][23].a[ 5]=      3.03094126; (*BG)[30][23].d[ 5]= 6.626707070628;
  (*BG)[30][23].a[ 6]=      1.33550507; (*BG)[30][23].d[ 6]= 1.548327351926;
  (*BG)[30][23].a[ 7]=      0.55883176; (*BG)[30][23].d[ 7]= 0.229590362644;
  (*BG)[30][23].a[ 8]=      0.21180799; (*BG)[30][23].d[ 8]= 0.010002176973;
  (*BG)[30][23].a[ 9]=      0.08300000; (*BG)[30][23].d[ 9]=-0.000088672357;
  // Basis function for L=d
  (*BG)[30][24].l    = ((*BS)[30][24].l=2);
  (*BG)[30][24].ng   = 10;
  (*BG)[30][24].a[ 0]=    305.22298937; (*BG)[30][24].d[ 0]= 9.694354512998;
  (*BG)[30][24].a[ 1]=     91.46827320; (*BG)[30][24].d[ 1]= 9.777622654144;
  (*BG)[30][24].a[ 2]=     34.98698597; (*BG)[30][24].d[ 2]= 8.261091112923;
  (*BG)[30][24].a[ 3]=     14.84941519; (*BG)[30][24].d[ 3]= 5.559122455145;
  (*BG)[30][24].a[ 4]=      6.68585457; (*BG)[30][24].d[ 4]= 2.770334334300;
  (*BG)[30][24].a[ 5]=      3.03094126; (*BG)[30][24].d[ 5]= 0.937528611509;
  (*BG)[30][24].a[ 6]=      1.33550507; (*BG)[30][24].d[ 6]= 0.258568332737;
  (*BG)[30][24].a[ 7]=      0.55883176; (*BG)[30][24].d[ 7]=-0.015378393336;
  (*BG)[30][24].a[ 8]=      0.21180799; (*BG)[30][24].d[ 8]= 0.002214746372;
  (*BG)[30][24].a[ 9]=      0.08300000; (*BG)[30][24].d[ 9]=-0.036649212099;
  // Basis function for L=d
  (*BG)[30][25].l    = ((*BS)[30][25].l=2);
  (*BG)[30][25].ng   = 10;
  (*BG)[30][25].a[ 0]=    305.22298937; (*BG)[30][25].d[ 0]=22.607963266221;
  (*BG)[30][25].a[ 1]=     91.46827320; (*BG)[30][25].d[ 1]=22.802150829071;
  (*BG)[30][25].a[ 2]=     34.98698597; (*BG)[30][25].d[ 2]=19.265485305850;
  (*BG)[30][25].a[ 3]=     14.84941519; (*BG)[30][25].d[ 3]=12.964291339855;
  (*BG)[30][25].a[ 4]=      6.68585457; (*BG)[30][25].d[ 4]= 6.460627861404;
  (*BG)[30][25].a[ 5]=      3.03094126; (*BG)[30][25].d[ 5]= 2.186387178395;
  (*BG)[30][25].a[ 6]=      1.33550507; (*BG)[30][25].d[ 6]= 0.105804888632;
  (*BG)[30][25].a[ 7]=      0.55883176; (*BG)[30][25].d[ 7]= 0.313640332844;
  (*BG)[30][25].a[ 8]=      0.21180799; (*BG)[30][25].d[ 8]=-0.304525099029;
  (*BG)[30][25].a[ 9]=      0.08300000; (*BG)[30][25].d[ 9]= 0.038560347555;
  // Basis function for L=d
  (*BG)[30][26].l    = ((*BS)[30][26].l=2);
  (*BG)[30][26].ng   = 10;
  (*BG)[30][26].a[ 0]=    305.22298937; (*BG)[30][26].d[ 0]=39.779816643480;
  (*BG)[30][26].a[ 1]=     91.46827320; (*BG)[30][26].d[ 1]=40.121499153914;
  (*BG)[30][26].a[ 2]=     34.98698597; (*BG)[30][26].d[ 2]=33.898563262416;
  (*BG)[30][26].a[ 3]=     14.84941519; (*BG)[30][26].d[ 3]=22.811304421332;
  (*BG)[30][26].a[ 4]=      6.68585457; (*BG)[30][26].d[ 4]=11.367790574589;
  (*BG)[30][26].a[ 5]=      3.03094126; (*BG)[30][26].d[ 5]= 3.847055130267;
  (*BG)[30][26].a[ 6]=      1.33550507; (*BG)[30][26].d[ 6]= 2.654786166174;
  (*BG)[30][26].a[ 7]=      0.55883176; (*BG)[30][26].d[ 7]=-1.947513905777;
  (*BG)[30][26].a[ 8]=      0.21180799; (*BG)[30][26].d[ 8]= 0.265597537261;
  (*BG)[30][26].a[ 9]=      0.08300000; (*BG)[30][26].d[ 9]=-0.019159084483;
  // Basis function for L=d
  (*BG)[30][27].l    = ((*BS)[30][27].l=2);
  (*BG)[30][27].ng   = 10;
  (*BG)[30][27].a[ 0]=    305.22298937; (*BG)[30][27].d[ 0]=110.568658037500;
  (*BG)[30][27].a[ 1]=     91.46827320; (*BG)[30][27].d[ 1]=111.518370224263;
  (*BG)[30][27].a[ 2]=     34.98698597; (*BG)[30][27].d[ 2]=94.221617030479;
  (*BG)[30][27].a[ 3]=     14.84941519; (*BG)[30][27].d[ 3]=63.404397776805;
  (*BG)[30][27].a[ 4]=      6.68585457; (*BG)[30][27].d[ 4]=31.596961844962;
  (*BG)[30][27].a[ 5]=      3.03094126; (*BG)[30][27].d[ 5]=10.692953337672;
  (*BG)[30][27].a[ 6]=      1.33550507; (*BG)[30][27].d[ 6]=-9.269123045006;
  (*BG)[30][27].a[ 7]=      0.55883176; (*BG)[30][27].d[ 7]= 1.597263606789;
  (*BG)[30][27].a[ 8]=      0.21180799; (*BG)[30][27].d[ 8]=-0.137320485415;
  (*BG)[30][27].a[ 9]=      0.08300000; (*BG)[30][27].d[ 9]= 0.008957633860;
  // Basis function for L=f
  (*BG)[30][28].l    = ((*BS)[30][28].l=3);
  (*BG)[30][28].ng   = 3;
  (*BG)[30][28].a[ 0]=      8.02000000; (*BG)[30][28].d[ 0]=21.149479170264;
  (*BG)[30][28].a[ 1]=      2.61400000; (*BG)[30][28].d[ 1]=-1.497106643851;
  (*BG)[30][28].a[ 2]=      0.83600000; (*BG)[30][28].d[ 2]= 3.854474584889;
  // Basis function for L=f
  (*BG)[30][29].l    = ((*BS)[30][29].l=3);
  (*BG)[30][29].ng   = 3;
  (*BG)[30][29].a[ 0]=      8.02000000; (*BG)[30][29].d[ 0]=22.401281882605;
  (*BG)[30][29].a[ 1]=      2.61400000; (*BG)[30][29].d[ 1]=56.031110851944;
  (*BG)[30][29].a[ 2]=      0.83600000; (*BG)[30][29].d[ 2]=-2.137930354791;
  // Basis function for L=f
  (*BG)[30][30].l    = ((*BS)[30][30].l=3);
  (*BG)[30][30].ng   = 3;
  (*BG)[30][30].a[ 0]=      8.02000000; (*BG)[30][30].d[ 0]=735.333967201365;
  (*BG)[30][30].a[ 1]=      2.61400000; (*BG)[30][30].d[ 1]=-38.340320973844;
  (*BG)[30][30].a[ 2]=      0.83600000; (*BG)[30][30].d[ 2]= 0.956125344660;
  // Basis function for L=g
  (*BG)[30][31].l    = ((*BS)[30][31].l=4);
  (*BG)[30][31].ng   = 2;
  (*BG)[30][31].a[ 0]=      6.61300000; (*BG)[30][31].d[ 0]=51.718236549141;
  (*BG)[30][31].a[ 1]=      1.97800000; (*BG)[30][31].d[ 1]=-43.654718288739;
  // Basis function for L=g
  (*BG)[30][32].l    = ((*BS)[30][32].l=4);
  (*BG)[30][32].ng   = 2;
  (*BG)[30][32].a[ 0]=      6.61300000; (*BG)[30][32].d[ 0]=1287.359753900910;
  (*BG)[30][32].a[ 1]=      1.97800000; (*BG)[30][32].d[ 1]=-16.362515817707;
 newgto Zn
 S 24
    1    5742307.150700000115         0.000044085598
    2     861450.787899999996         0.000174919707
    3     196346.058660000010         0.000632855329
    4      55682.870736999997         0.002148115975
    5      18183.902394000001         0.006821337645
    6       6569.644801900000         0.020198536394
    7       2563.561327600000         0.054065905643
    8       1063.114717600000         0.128491992175
    9        462.897710780000         0.246544770372
   10        209.528210490000         0.311112395148
   11         97.240787991000         0.108819643486
   12       1929.268999200000         0.000982882223
   13        598.071223070000         0.006817276036
   14        229.696673360000         0.043439817175
   15         99.416819228000         0.161384490548
   16         44.241101421000         0.063849384702
   17         21.194367113000        -0.002346675429
   18         10.158731597000         0.002196656567
   19          4.374617615800        -0.001060289163
   20          2.090148907100         0.000502674445
   21          0.918691364400        -0.000182951996
   22          0.192786606100         0.000062104960
   23          0.087329915200        -0.000046993349
   24          0.037552217100         0.000014895240
 S 24
    1    5742307.150700000115         0.000013850630
    2     861450.787899999996         0.000054955547
    3     196346.058660000010         0.000198827861
    4      55682.870736999997         0.000674886162
    5      18183.902394000001         0.002143099550
    6       6569.644801900000         0.006345892333
    7       2563.561327600000         0.016986201842
    8       1063.114717600000         0.040369080814
    9        462.897710780000         0.077458412706
   10        209.528210490000         0.097744001080
   11         97.240787991000         0.034188503950
   12       1929.268999200000         0.001852343772
   13        598.071223070000         0.016320465114
   14        229.696673360000         0.075784690903
   15         99.416819228000         0.159513915922
   16         44.241101421000        -0.069418138923
   17         21.194367113000        -0.541880885978
   18         10.158731597000        -0.477493414941
   19          4.374617615800        -0.075913376377
   20          2.090148907100         0.003299595907
   21          0.918691364400        -0.002143489958
   22          0.192786606100         0.000437153861
   23          0.087329915200        -0.000331005205
   24          0.037552217100         0.000104512905
 S 24
    1    5742307.150700000115        -0.000005232820
    2     861450.787899999996        -0.000020762412
    3     196346.058660000010        -0.000075117912
    4      55682.870736999997        -0.000254974524
    5      18183.902394000001        -0.000809671050
    6       6569.644801900000        -0.002397501931
    7       2563.561327600000        -0.006417450781
    8       1063.114717600000        -0.015251590179
    9        462.897710780000        -0.029264078912
   10        209.528210490000        -0.036928050302
   11         97.240787991000        -0.012916545053
   12       1929.268999200000        -0.000782677354
   13        598.071223070000        -0.006849026777
   14        229.696673360000        -0.032599063688
   15         99.416819228000        -0.068376294527
   16         44.241101421000         0.031253720807
   17         21.194367113000         0.344673449551
   18         10.158731597000         0.437245003452
   19          4.374617615800        -0.214907645618
   20          2.090148907100        -0.716317537878
   21          0.918691364400        -0.349323414740
   22          0.192786606100        -0.009886105746
   23          0.087329915200         0.004129330665
   24          0.037552217100        -0.001029644665
 S 24
    1    5742307.150700000115        -0.000001199445
    2     861450.787899999996        -0.000004759075
    3     196346.058660000010        -0.000017218218
    4      55682.870736999997        -0.000058444211
    5      18183.902394000001        -0.000185589465
    6       6569.644801900000        -0.000549545521
    7       2563.561327600000        -0.001470981646
    8       1063.114717600000        -0.003495906707
    9        462.897710780000        -0.006707791682
   10        209.528210490000        -0.008464495649
   11         97.240787991000        -0.002960677277
   12       1929.268999200000        -0.000181372541
   13        598.071223070000        -0.001591903908
   14        229.696673360000        -0.007581657064
   15         99.416819228000        -0.015958093837
   16         44.241101421000         0.007393579176
   17         21.194367113000         0.084498761425
   18         10.158731597000         0.112941950351
   19          4.374617615800        -0.068745371164
   20          2.090148907100        -0.243339341702
   21          0.918691364400        -0.258218192970
   22          0.192786606100         0.525147718981
   23          0.087329915200         0.594524161564
   24          0.037552217100         0.044095630989
 S 24
    1    5742307.150700000115        -0.000000623123
    2     861450.787899999996        -0.000002472381
    3     196346.058660000010        -0.000008945017
    4      55682.870736999997        -0.000030362284
    5      18183.902394000001        -0.000096415368
    6       6569.644801900000        -0.000285493759
    7       2563.561327600000        -0.000764187976
    8       1063.114717600000        -0.001816154456
    9        462.897710780000        -0.003484757110
   10        209.528210490000        -0.004397380360
   11         97.240787991000        -0.001538098033
   12       1929.268999200000        -0.000097778159
   13        598.071223070000        -0.000813951840
   14        229.696673360000        -0.004022189827
   15         99.416819228000        -0.008052332644
   16         44.241101421000         0.003078715782
   17         21.194367113000         0.046037749870
   18         10.158731597000         0.055426897211
   19          4.374617615800        -0.028156010369
   20          2.090148907100        -0.144699817577
   21          0.918691364400        -0.136831644969
   22          0.192786606100         0.276221768072
   23          0.087329915200         1.479504083809
   24          0.037552217100        -1.984297679637
 S 24
    1    5742307.150700000115        -0.000001174893
    2     861450.787899999996        -0.000004661658
    3     196346.058660000010        -0.000016865769
    4      55682.870736999997        -0.000057247883
    5      18183.902394000001        -0.000181790529
    6       6569.644801900000        -0.000538296563
    7       2563.561327600000        -0.001440871289
    8       1063.114717600000        -0.003424347011
    9        462.897710780000        -0.006570486092
   10        209.528210490000        -0.008291231090
   11         97.240787991000        -0.002900073496
   12       1929.268999200000        -0.000114778094
   13        598.071223070000        -0.001813467050
   14        229.696673360000        -0.005999011422
   15         99.416819228000        -0.020184259017
   16         44.241101421000         0.021300662857
   17         21.194367113000         0.048159662990
   18         10.158731597000         0.182256060863
   19          4.374617615800        -0.228442589236
   20          2.090148907100         0.054245144401
   21          0.918691364400        -0.779406079163
   22          0.192786606100         4.020825261137
   23          0.087329915200        -5.381996211738
   24          0.037552217100         2.301633172042
 S 24
    1    5742307.150700000115         0.000003106990
    2     861450.787899999996         0.000012327694
    3     196346.058660000010         0.000044601302
    4      55682.870736999997         0.000151391265
    5      18183.902394000001         0.000480742636
[...]
  Aux angular momentum 0               ... done (    0.005 sec)
  Aux angular momentum 1               ... done (    0.005 sec)
  Aux angular momentum 2               ... done (    0.007 sec)
  Aux angular momentum 3               ... done (    0.010 sec)
  Aux angular momentum 4               ... done (    0.007 sec)
  Aux angular momentum 5               ... done (    0.010 sec)
  Aux angular momentum 6               ... done (    0.014 sec)
Closing buffer VIJ    ( 0.00 GB; CompressionRatio= 1.52)
Closing buffer VIAPAO ( 0.00 GB; CompressionRatio= 1.00)
Closing buffer VIAVMO ( 0.00 GB; CompressionRatio= 1.00)
Closing buffer VABPAO ( 0.00 GB; CompressionRatio= 1.98)
  Phase 1 completed in     0.157 sec

--------------------
RI-METRIC GENERATION
--------------------

Time for V**-1/2 generation:     0.123 sec
Second Phase: resorting and orthogonalising VIJ

IJ-Resorting
Closing buffer IJ_V ( 0.00 GB; CompressionRatio= 1.00)
Closing buffer IJ_K ( 0.00 GB; CompressionRatio= 1.00)
(ij|v) resorting                              ... done (    0.020 sec)

IA-Resorting
Closing buffer IAVPAO ( 0.00 GB; CompressionRatio= 1.00)
Closing buffer IAKPAO ( 0.00 GB; CompressionRatio= 1.00)
(i|av) resorting and orthogonalization        ... done (    0.016 sec)

IA(MO)-Resorting
Closing buffer IAVMO ( 0.00 GB; CompressionRatio= 1.00)
(ia|v)MO resorting                            ... done (    0.017 sec)
Closing buffer AKBPAO ( 0.03 GB; CompressionRatio= 1.00)
(a|vb)                                        ... done (    0.485 sec)

  Phase 2 completed in     0.692 sec
RI-Integral transformation completed in     0.964 sec

Making orbital specific virtuals              ... done (   0.0 sec, average of   61 OSVs/MO)
--------------------------------
INITIAL GUESS AND PNO GENERATION
--------------------------------
PNO generation with semilocal MP2, Starting Loop over 15 pairs
   .... Finished loop over pairs
Making pair pair interaction lists            ... Prescreening for VAB generation - part 1: Average nr. of PAO atoms per Aux atom:    1.0
Prescreening for VAB generation - part 2: Average nr. of PAO atoms per Aux atom:    1.0
done
Total time spent in the initial guess                 ...     0.735 sec
SL-PNO-MP2 correlation energy (all kept pairs)        ...      -0.446995211591 Eh
sum of pair energies estimated for screened out pairs ...       0.000000000000 Eh
sum of MP2 pair energies for pairs that were not kept ...       0.000000000000 Eh
sum of PNO error estimates for the kept pairs         ...      -0.000625515702 Eh
                                                          --------------------
sum of all corrections                                         -0.000625515702
Initial total correlation energy                               -0.447620727292
-------------------------------------
RI-(ij|mn) TRANSFORMATION
-------------------------------------

Total memory for most expensive pair       14.190 MB

Ibatch:  1 (of  1)
Starting 2-4 index PAOEXT integral generation ... done
-------------------------------------
RI-(im|jn) TRANSFORMATION
-------------------------------------


RI-(im|jn) and -(ij|mn) transformation finished.

Timings:
Total EXT                                  ...          0.090 sec
Size of the IJMN file                      ...         1 MB
Size of the IMJN file                      ...         1 MB

Precomputing pair/pair interactions        ... done (    0.016 sec)
Size of the J+K file                       ... 0 MB
---------------------
RI-PNO TRANSFORMATION
---------------------

Total Number of PNOs                   ...   744
Average number of PNOs per pair        ...    49
   #pairs with  1 -  5 PNOs   :    0
   #pairs with  6 - 10 PNOs   :    0
   #pairs with 11 - 15 PNOs   :    0
   #pairs with 16 - 20 PNOs   :    0
   #pairs with 21 - 25 PNOs   :    0
   #pairs with 26 - 30 PNOs   :    0
   #pairs with 31 - 35 PNOs   :    0
   #pairs with 36 - 40 PNOs   :    0
   #pairs with 41 - 45 PNOs   :    0
   #pairs with 46 - 50 PNOs   :   12
   #pairs with >50     PNOs   :    3

Generation of (ij|ab)[P] integrals            ... on
Generation of (ia|bc)[P],(ja|bc)[P] integrals ... on
Storage of 3 and 4 external integrals         ... on
Generation of ALL (ka|bc)[P] integrals        ... on
Include core orbitals in trafo                ... off
Keep RI integrals in memory                   ... off

Ibatch:  1 (of  1)
Starting 2-4 index PNO integral generation ... done

Timings:
Total PNO integral transformation time     ...          1.277 sec
Size of the 3-external file                ...        14 MB
Size of the 4-external file                ...        90 MB
Size of the IKJL file                      ...         0 MB
Size of the all 3-external file            ...        35 MB
Size of the 1-external file                ...         0 MB

Making pair/pair overlap matrices          ... done (    0.149 sec)
Size of the pair overlap file              ... 8 MB
Redoing the guess amplitudes               ... done (    0.000 sec)

-------------------------
FINAL STARTUP INFORMATION
-------------------------

E(0)                                       ...  -1802.836745354
E(SL-MP2)                                  ...     -0.446995212
Initial E(tot)                             ...  -1803.283740566
<T|T>                                      ...      0.049156571
Number of pairs included                   ... 15
Total number of pairs                      ... 15

------------------------------------------------
                  RHF COUPLED CLUSTER ITERATIONS
------------------------------------------------

Number of PNO amplitudes to be optimized   ...        37466
Number of non-PNO amplitudes               ...       132540
Untruncated number of regular amplitudes   ...       132540

Iter       E(tot)           E(Corr)          Delta-E          Residual     Time
  0  -1803.283769202     -0.446398332      0.000596880      0.018474432    0.72
                           *** Turning on DIIS ***
  1  -1803.233620436     -0.396249567      0.050148765      0.004985274    1.15
  2  -1803.242054633     -0.404683763     -0.008434196      0.001367476    1.27
  3  -1803.241875439     -0.404504569      0.000179194      0.000245267    1.31
  4  -1803.241946424     -0.404575554     -0.000070985      0.000041990    1.42
  5  -1803.241955970     -0.404585100     -0.000009546      0.000018819    1.39
  6  -1803.241956287     -0.404585417     -0.000000317      0.000011102    1.86
  7  -1803.241956380     -0.404585510     -0.000000093      0.000005725    1.43
               --- The Coupled-Cluster iterations have converged ---

----------------------
COUPLED CLUSTER ENERGY
----------------------

E(0)                                       ...  -1802.836745354
E(CORR)(strong-pairs)                      ...     -0.404585510
E(CORR)(weak-pairs)                        ...     -0.000625516
E(CORR)(corrected)                         ...     -0.405211026
E(TOT)                                     ...  -1803.241956380
Singles Norm <S|S>**1/2                    ...      0.021241992
T1 diagnostic                              ...      0.006717308

------------------
LARGEST AMPLITUDES
------------------
  10-> 23  10-> 23       0.014501
   9-> 23   9-> 23       0.014500
  13-> 22  13-> 22       0.014043
  12-> 22  12-> 22       0.013410
  11-> 22  11-> 22       0.013362
  13-> 22  12-> 23       0.011679
   9-> 17   9-> 23       0.011248
   9-> 23   9-> 17       0.011248
  10-> 17  10-> 23       0.011247
  10-> 23  10-> 17       0.011247
  13-> 17  13-> 22       0.011201
  13-> 22  13-> 17       0.011201
  10-> 17  10-> 17       0.011189
   9-> 17   9-> 17       0.011181
  11-> 17  11-> 17       0.011179
  12-> 17  12-> 17       0.011177


        !!!!!!!!!!!!!!!!!!!!!!!!!!!!!!!!!!!!!!!!!!!!!!!!!!!!!!!!!!!!!!!!!!!!!!!!!! 
        !  Warning: for CCSD and QCISD the densities are linearized CC densities !
        !!!!!!!!!!!!!!!!!!!!!!!!!!!!!!!!!!!!!!!!!!!!!!!!!!!!!!!!!!!!!!!!!!!!!!!!!! 

Trace of internal density part =     -0.078133692
Trace of external density part =      0.078133692

-------------------------------------------
DLPNO BASED TRIPLES CORRECTION
-------------------------------------------

Singles multiplier          ...  1.000000
TCutTNO                     ... 1.000e-07
TCutMP2Pairs                ... 1.000e-05
TCutMKNStrong               ... 1.000e-02
TCutMKNWeak                 ... 1.000e-01
NTCutTNO                    ... 1

TCutTNO
  0.000000100000
Number of Triples that are to be computed         ...     30

10% done
20% done
30% done
40% done
50% done
60% done
70% done
80% done
90% done
Triples-Correction TCutTNO=   1.000e-07 (NWeakPairs = 0  1  2  3)  -0.010165662868    0.000000000000    0.000000000000    0.000000000000
Triples timings:
Total time                    ...     0.940 sec

Triples List generation       ...     0.000 sec
TNO generation                ...     0.058 sec
Pair density generation       ...     0.001 sec
Look up tables                ...     0.000 sec
Generating 3-index integrals  ...     0.289 sec
Make 4-ind.int. from 3-ind.int...     0.385 sec
Projecting amplitudes (D + S) ...     0.013 sec
Downprojecting integrals      ...     0.000 sec
Calculate W0/W1               ...     0.071 sec
Energy contr. (sum over a,b,c)...     0.018 sec
Fitting ET(->0)               ...     0.000 sec

Everything after 3-index      ...     0.487 sec

 TNO integrals                 ...     0.670 sec
   Reading 3-index integrals  ...     0.019 sec
   Sorting integrals          ...     0.036 sec
       Sorting integrals 1    ...     0.000 sec
       Sorting integrals 2    ...     0.022 sec
       Sorting integrals 3    ...     0.004 sec
       Sorting integrals 4    ...     0.000 sec
       Sorting integrals 5    ...     0.000 sec
       Sorting integrals 6    ...     0.010 sec
   Calculating local VM**-1/2 ...     0.244 sec
   Orthogonal. integrals      ...     0.092 sec
   Multipl. 3-index integrals ...     0.279 sec
  All concerning IRIab (w/ TNO)...     0.099 sec

 W 3-ext contribution          ...     0.052 sec
 W 3-int contribution          ...     0.008 sec
 Sorting W                     ...     0.010 sec

V exchange contribution       ...     0.008 sec

 Timings for Triples without generation
     of 3-index integrals     ...     0.487 sec
       0 weak pairs           ...     0.487 sec
       1 weak pair            ...     0.000 sec
       2 weak pairs           ...     0.000 sec
       3 weak pairs           ...     0.000 sec
 Extra time for extrapolation  ...     0.000 sec

Number of Triples (0, 1, 2, 3 weak pairs; overall): 30 0 0 0 30
Number of Atoms   (0, 1, 2, 3 weak pairs; overall):    1.0    -nan    -nan    -nan  (1)
Number of PAOs    (0, 1, 2, 3 weak pairs; overall):  108.0    -nan    -nan    -nan  (108)
Number of AuxFcns (0, 1, 2, 3 weak pairs; overall):  316.0    -nan    -nan    -nan  (316)
TRIPLES STAT OVERALL (nr. Triples: 30): Aver. nr. of NTNO/Atoms/PAOs/AuxFcns:   59.1/   1.0/ 108.0/ 316.0 (1/108/316)
Number of TNOs EP 0 (0, 1, 2, 3 weak pairs):   59.1    -nan    -nan    -nan

Triples Correction (T)                     ...     -0.010165663
Final correlation energy                   ...     -0.415376689
E(CCSD)                                    ...  -1803.241956380
E(CCSD(T))                                 ...  -1803.252122043

NORM  =      1.039518068 sqrt=     1.019567589
W(HF) =      0.961984241
------------------------------------------------------------------------------
                           ORCA POPULATION ANALYSIS
------------------------------------------------------------------------------
Input electron density              ... ORCA.mdcip.tmp
BaseName (.gbw .S,...)              ... ORCA

                    ********************************
                    * MULLIKEN POPULATION ANALYSIS *
                    ********************************

-----------------------
MULLIKEN ATOMIC CHARGES
-----------------------
   0 Zn:    2.000000
Sum of atomic charges:    2.0000000

--------------------------------
MULLIKEN REDUCED ORBITAL CHARGES
--------------------------------
  0 Zns       :     6.001625  s :     6.001625
      pz      :     4.001876  p :    12.005624
      px      :     4.001867
      py      :     4.001881
      dz2     :     1.993836  d :     9.969148
      dxz     :     1.993829
      dyz     :     1.993832
      dx2y2   :     1.993825
      dxy     :     1.993826
      f0      :     0.003136  f :     0.021959
      f+1     :     0.003138
      f-1     :     0.003135
      f+2     :     0.003139
      f-2     :     0.003134
      f+3     :     0.003139
      f-3     :     0.003137
      g0      :     0.000183  g :     0.001644
      g+1     :     0.000182
      g-1     :     0.000183
      g+2     :     0.000183
      g-2     :     0.000183
      g+3     :     0.000183
      g-3     :     0.000183
      g+4     :     0.000183
      g-4     :     0.000182


                     *******************************
                     * LOEWDIN POPULATION ANALYSIS *
                     *******************************

----------------------
LOEWDIN ATOMIC CHARGES
----------------------
   0 Zn:    2.000000

-------------------------------
LOEWDIN REDUCED ORBITAL CHARGES
-------------------------------
  0 Zns       :     6.001625  s :     6.001625
      pz      :     4.001876  p :    12.005624
      px      :     4.001867
      py      :     4.001881
      dz2     :     1.993836  d :     9.969148
      dxz     :     1.993829
      dyz     :     1.993832
      dx2y2   :     1.993825
      dxy     :     1.993826
      f0      :     0.003136  f :     0.021959
      f+1     :     0.003138
      f-1     :     0.003135
      f+2     :     0.003139
      f-2     :     0.003134
      f+3     :     0.003139
      f-3     :     0.003137
      g0      :     0.000183  g :     0.001644
      g+1     :     0.000182
      g-1     :     0.000183
      g+2     :     0.000183
      g-2     :     0.000183
      g+3     :     0.000183
      g-3     :     0.000183
      g+4     :     0.000183
      g-4     :     0.000182


                      *****************************
                      * MAYER POPULATION ANALYSIS *
                      *****************************

  NA   - Mulliken gross atomic population
  ZA   - Total nuclear charge
  QA   - Mulliken gross atomic charge
  VA   - Mayer's total valence
  BVA  - Mayer's bonded valence
  FA   - Mayer's free valence

  ATOM       NA         ZA         QA         VA         BVA        FA
  0 Zn    28.0000    30.0000     2.0000     0.3079     0.0000     0.3079



-------
TIMINGS
-------

Total execution time                   ...       16.380 sec

Localization of occupied MO's          ...        0.769 sec (  4.7%)
Fock Matrix Formation                  ...        0.486 sec (  3.0%)
First Half Transformation              ...        0.976 sec (  6.0%)
RI-PNO integral transformation         ...        1.562 sec (  9.5%)
Initial Guess                          ...        0.735 sec (  4.5%)
DIIS Solver                            ...        1.675 sec ( 10.2%)
State Vector Update                    ...        0.001 sec (  0.0%)
Sigma-vector construction              ...        8.864 sec ( 54.1%)
  <0|H|S>                              ...        0.002 sec (  0.0% of sigma)
  <D|H|D>(0-ext)                       ...        0.096 sec (  1.1% of sigma)
  <D|H|D>(2-ext Fock)                  ...        0.001 sec (  0.0% of sigma)
  <D|H|D>(2-ext)                       ...        0.171 sec (  1.9% of sigma)
  <D|H|D>(4-ext)                       ...        0.880 sec (  9.9% of sigma)
  <D|H|D>(4-ext-corr)                  ...        2.372 sec ( 26.8% of sigma)
  CCSD doubles correction              ...        0.011 sec (  0.1% of sigma)
  <S|H|S>                              ...        0.027 sec (  0.3% of sigma)
  <D|H|S>(1-ext)                       ...        0.056 sec (  0.6% of sigma)
  <S|H|D>(3-ext)                       ...        0.054 sec (  0.6% of sigma)
  Fock-dressing                        ...        0.377 sec (  4.3% of sigma)
  Singles Fock matrix                  ...        2.842 sec ( 32.1% of sigma)
  Singles amplitudes                   ...        0.043 sec (  0.5% of sigma)
  (ik|jl)-dressing                     ...        0.140 sec (  1.6% of sigma)
  (ij|ab),(ia|jb)-dressing             ...        0.925 sec ( 10.4% of sigma)
  Pair energies                        ...        0.004 sec (  0.0% of sigma)
Total Time for computing (T)           ...        0.943 sec (  5.8% of ALL)

           ************************************************************
           *              Shut down parallel processing               *
           ************************************************************

-------------------------   --------------------
FINAL SINGLE POINT ENERGY     -1803.252122042662
-------------------------   --------------------


                            ***************************************
                            *     ORCA property calculations      *
                            ***************************************

                                    ---------------------
                                    Active property flags
                                    ---------------------
   (+) Dipole Moment


------------------------------------------------------------------------------
                       ORCA ELECTRIC PROPERTIES CALCULATION
------------------------------------------------------------------------------

Dipole Moment Calculation                       ... on
Quadrupole Moment Calculation                   ... off
Polarizability Calculation                      ... off
GBWName                                         ... ORCA.gbw
Electron density file                           ... ORCA.scfp.tmp

-------------
DIPOLE MOMENT
-------------
                                X             Y             Z
Electronic contribution:     -0.00000      -0.00000       0.00000
Nuclear contribution   :      0.00000       0.00000       0.00000
                        -----------------------------------------
Total Dipole Moment    :     -0.00000      -0.00000       0.00000
                        -----------------------------------------
Magnitude (a.u.)       :      0.00000
Magnitude (Debye)      :      0.00000


                           *** MDCI DENSITY ***

------------------------------------------------------------------------------
                       ORCA ELECTRIC PROPERTIES CALCULATION
------------------------------------------------------------------------------

Dipole Moment Calculation                       ... on
Quadrupole Moment Calculation                   ... off
Polarizability Calculation                      ... off
GBWName                                         ... ORCA.gbw
Electron density file                           ... ORCA.mdcip.tmp

-------------
DIPOLE MOMENT
-------------
                                X             Y             Z
Electronic contribution:     -0.00000      -0.00000      -0.00000
Nuclear contribution   :      0.00000       0.00000       0.00000
                        -----------------------------------------
Total Dipole Moment    :     -0.00000      -0.00000      -0.00000
                        -----------------------------------------
Magnitude (a.u.)       :      0.00000
Magnitude (Debye)      :      0.00000


Timings for individual modules:

Sum of individual times         ...       30.265 sec (=   0.504 min)
GTO integral calculation        ...        1.984 sec (=   0.033 min)   6.6 %
Relativistic integrals          ...        0.934 sec (=   0.016 min)   3.1 %
SCF iterations                  ...        9.430 sec (=   0.157 min)  31.2 %
MDCI module                     ...       17.917 sec (=   0.299 min)  59.2 %
                             ****ORCA TERMINATED NORMALLY****
TOTAL RUN TIME: 0 days 0 hours 0 minutes 32 seconds 259 msec
