 vasp.5.3.3 18Dez12 (build Jan 23 2018 09:58:40) complex                        
  
 executed on             LinuxIFC date 2018.09.17  01:15:07
 running on    4 total cores
 distrk:  each k-point on    4 cores,    1 groups
 distr:  one band on NCORES_PER_BAND=   1 cores,    4 groups


--------------------------------------------------------------------------------------------------------


 INCAR:
 POTCAR:    PAW_PBE Nb_sv 25May2007               
 POTCAR:    PAW_PBE Ru 04Feb2005                  
 POTCAR:    PAW_PBE Ga 08Apr2002                  
 POTCAR:    PAW_PBE Zn 06Sep2000                  
 POTCAR:    PAW_PBE Nb_sv 25May2007               
   VRHFIN =Nb: 4p5s4d                                                           
   LEXCH  = PE                                                                  
   EATOM  =  1555.1913 eV,  114.3033 Ry                                         
                                                                                
   TITEL  = PAW_PBE Nb_sv 25May2007                                             
   LULTRA =        F    use ultrasoft PP ?                                      
   IUNSCR =        1    unscreen: 0-lin 1-nonlin 2-no                           
   RPACOR =    1.800    partial core radius                                     
   POMASS =   92.910; ZVAL   =   13.000    mass and valenz                      
   RCORE  =    2.400    outmost cutoff radius                                   
   RWIGS  =    2.400; RWIGS  =    1.270    wigner-seitz radius (au A)           
   ENMAX  =  293.235; ENMIN  =  219.927 eV                                      
   ICORE  =        3    local potential                                         
   LCOR   =        T    correct aug charges                                     
   LPAW   =        T    paw PP                                                  
   EAUG   =  455.659                                                            
   DEXC   =    0.000                                                            
   RMAX   =    2.456    core radius for proj-oper                               
   RAUG   =    1.300    factor for augmentation sphere                          
   RDEP   =    2.451    radius for radial grids                                 
   RDEPT  =    1.956    core radius for aug-charge                              
                                                                                
   Atomic configuration                                                         
   11 entries                                                                   
     n  l   j            E        occ.                                          
     1  0  0.50    -18805.2457   2.0000                                         
     2  0  0.50     -2630.2869   2.0000                                         
     2  1  1.50     -2348.4046   6.0000                                         
     3  0  0.50      -438.8757   2.0000                                         
     3  1  1.50      -346.7588   6.0000                                         
     3  2  2.50      -196.2560  10.0000                                         
     4  0  0.50       -58.3859   2.0000                                         
     5  0  0.50        -3.9816   1.0000                                         
     4  1  1.50       -34.5141   6.0000                                         
     4  2  2.50        -3.0408   4.0000                                         
     4  3  2.50        -1.3606   0.0000                                         
   Description                                                                  
     l       E           TYP  RCUT    TYP  RCUT                                 
     0    -58.3859094     23  2.200                                             
     0     -3.9816262     23  2.200                                             
     1    -34.5140738     23  2.200                                             
     1     13.6058260     23  2.200                                             
     2     -3.0408010     23  2.200                                             
     2     -0.1283038     23  2.200                                             
     3     -1.3605826     23  2.400                                             
  local pseudopotential read in
  partial core-charges read in
  partial kinetic energy density read in
  atomic valenz-charges read in
  non local Contribution for L=           0  read in
    real space projection operators read in
  non local Contribution for L=           0  read in
    real space projection operators read in
  non local Contribution for L=           1  read in
    real space projection operators read in
  non local Contribution for L=           1  read in
    real space projection operators read in
  non local Contribution for L=           2  read in
    real space projection operators read in
  non local Contribution for L=           2  read in
    real space projection operators read in
    PAW grid and wavefunctions read in
 
   number of l-projection  operators is LMAX  =           6
   number of lm-projection operators is LMMAX =          18
 
 POTCAR:    PAW_PBE Ru 04Feb2005                  
   VRHFIN =Ru: s1 d7                                                            
   LEXCH  = PE                                                                  
   EATOM  =   454.8837 eV,   33.4330 Ry                                         
                                                                                
   TITEL  = PAW_PBE Ru 04Feb2005                                                
   LULTRA =        F    use ultrasoft PP ?                                      
   IUNSCR =        1    unscreen: 0-lin 1-nonlin 2-no                           
   RPACOR =    2.170    partial core radius                                     
   POMASS =  101.070; ZVAL   =    8.000    mass and valenz                      
   RCORE  =    2.700    outmost cutoff radius                                   
   RWIGS  =    2.650; RWIGS  =    1.402    wigner-seitz radius (au A)           
   ENMAX  =  213.271; ENMIN  =  159.953 eV                                      
   ICORE  =        3    local potential                                         
   LCOR   =        T    correct aug charges                                     
   LPAW   =        T    paw PP                                                  
   EAUG   =  333.494                                                            
   DEXC   =    0.000                                                            
   RMAX   =    2.758    core radius for proj-oper                               
   RAUG   =    1.300    factor for augmentation sphere                          
   RDEP   =    2.865    radius for radial grids                                 
   RDEPT  =    2.250    core radius for aug-charge                              
                                                                                
   Atomic configuration                                                         
   12 entries                                                                   
     n  l   j            E        occ.                                          
     1  0  0.50    -21933.2693   2.0000                                         
     2  0  0.50     -3153.4097   2.0000                                         
     2  1  1.50     -2823.9548   6.0000                                         
     3  0  0.50      -555.3323   2.0000                                         
     3  1  1.50      -447.1024   6.0000                                         
     3  2  2.50      -273.0570  10.0000                                         
     4  0  0.50       -76.3589   2.0000                                         
     4  1  1.50       -46.4050   6.0000                                         
     4  2  2.50        -5.2029   7.0000                                         
     5  0  0.50        -4.2392   1.0000                                         
     5  1  0.50        -1.3606   0.0000                                         
     4  3  2.50        -1.3606   0.0000                                         
   Description                                                                  
     l       E           TYP  RCUT    TYP  RCUT                                 
     2     -5.2028939     23  2.600                                             
     2     -6.5634765     23  2.600                                             
     0     -4.2392259     23  2.700                                             
     0     27.2116520     23  2.700                                             
     1     -4.0817478     23  2.700                                             
     1     27.2116520     23  2.700                                             
     3     -5.4423304     23  2.600                                             
  local pseudopotential read in
  partial core-charges read in
  partial kinetic energy density read in
  atomic valenz-charges read in
  non local Contribution for L=           2  read in
    real space projection operators read in
  non local Contribution for L=           2  read in
    real space projection operators read in
  non local Contribution for L=           0  read in
    real space projection operators read in
  non local Contribution for L=           0  read in
    real space projection operators read in
  non local Contribution for L=           1  read in
    real space projection operators read in
  non local Contribution for L=           1  read in
    real space projection operators read in
    PAW grid and wavefunctions read in
 
   number of l-projection  operators is LMAX  =           6
   number of lm-projection operators is LMMAX =          18
 
 POTCAR:    PAW_PBE Ga 08Apr2002                  
   VRHFIN =Ga: s2p1                                                             
   LEXCH  = PE                                                                  
   EATOM  =    58.8688 eV,    4.3267 Ry                                         
                                                                                
   TITEL  = PAW_PBE Ga 08Apr2002                                                
   LULTRA =        F    use ultrasoft PP ?                                      
   IUNSCR =        1    unscreen: 0-lin 1-nonlin 2-no                           
   RPACOR =    2.170    partial core radius                                     
   POMASS =   69.723; ZVAL   =    3.000    mass and valenz                      
   RCORE  =    2.600    outmost cutoff radius                                   
   RWIGS  =    2.650; RWIGS  =    1.402    wigner-seitz radius (au A)           
   ENMAX  =  134.678; ENMIN  =  101.009 eV                                      
   ICORE  =        3    local potential                                         
   LCOR   =        T    correct aug charges                                     
   LPAW   =        T    paw PP                                                  
   EAUG   =  320.264                                                            
   DEXC   =    0.000                                                            
   RMAX   =    2.658    core radius for proj-oper                               
   RAUG   =    1.300    factor for augmentation sphere                          
   RDEP   =    2.684    radius for radial grids                                 
   RDEPT  =    2.308    core radius for aug-charge                              
                                                                                
   Atomic configuration                                                         
   10 entries                                                                   
     n  l   j            E        occ.                                          
     1  0  0.50    -10228.7830   2.0000                                         
     2  0  0.50     -1262.1604   2.0000                                         
     2  1  1.50     -1098.6333   6.0000                                         
     3  0  0.50      -148.1110   2.0000                                         
     3  1  1.50       -98.8436   6.0000                                         
     3  2  2.50       -19.1549  10.0000                                         
     4  0  0.50        -8.9483   2.0000                                         
     4  1  0.50        -2.5791   1.0000                                         
     4  2  1.50         5.4423   0.0000                                         
     4  3  2.50        -2.7416   0.0000                                         
   Description                                                                  
     l       E           TYP  RCUT    TYP  RCUT                                 
     0     -8.9483097     23  2.600                                             
     0     -5.8232215     23  2.600                                             
     1     -2.5790793     23  2.600                                             
     1      5.2230115     23  2.600                                             
     2      1.3605826     23  2.600                                             
     3     -1.3605826      7  2.600                                             
  local pseudopotential read in
  partial core-charges read in
  partial kinetic energy density read in
  atomic valenz-charges read in
  non local Contribution for L=           0  read in
    real space projection operators read in
  non local Contribution for L=           0  read in
    real space projection operators read in
  non local Contribution for L=           1  read in
    real space projection operators read in
  non local Contribution for L=           1  read in
    real space projection operators read in
  non local Contribution for L=           2  read in
    real space projection operators read in
    PAW grid and wavefunctions read in
 
   number of l-projection  operators is LMAX  =           5
   number of lm-projection operators is LMMAX =          13
 
 POTCAR:    PAW_PBE Zn 06Sep2000                  
   VRHFIN =Zn: d10 p2                                                           
   LEXCH  = PE                                                                  
   EATOM  =  1748.8345 eV,  128.5357 Ry                                         
                                                                                
   TITEL  = PAW_PBE Zn 06Sep2000                                                
   LULTRA =        F    use ultrasoft PP ?                                      
   IUNSCR =        1    unscreen: 0-lin 1-nonlin 2-no                           
   RPACOR =    2.000    partial core radius                                     
   POMASS =   65.390; ZVAL   =   12.000    mass and valenz                      
   RCORE  =    2.300    outmost cutoff radius                                   
   RWIGS  =    2.400; RWIGS  =    1.270    wigner-seitz radius (au A)           
   ENMAX  =  276.723; ENMIN  =  207.542 eV                                      
   RCLOC  =    1.828    cutoff for local pot                                    
   LCOR   =        T    correct aug charges                                     
   LPAW   =        T    paw PP                                                  
   EAUG   =  575.892                                                            
   DEXC   =    0.000                                                            
   RMAX   =    2.347    core radius for proj-oper                               
   RAUG   =    1.300    factor for augmentation sphere                          
   RDEP   =    2.324    radius for radial grids                                 
   RDEPT  =    1.788    core radius for aug-charge                              
                                                                                
   Atomic configuration                                                         
    9 entries                                                                   
     n  l   j            E        occ.                                          
     1  0  0.50     -9524.6913   2.0000                                         
     2  0  0.50     -1158.1882   2.0000                                         
     2  1  1.50     -1003.8506   6.0000                                         
     3  0  0.50      -129.2194   2.0000                                         
     3  1  1.50       -83.3890   6.0000                                         
     3  2  2.50       -10.1410  10.0000                                         
     4  0  0.50        -5.9785   2.0000                                         
     4  1  0.50        -4.0817   0.0000                                         
     4  3  2.50        -1.3606   0.0000                                         
   Description                                                                  
     l       E           TYP  RCUT    TYP  RCUT                                 
     2    -10.1410010     23  2.300                                             
     2    -11.5015836     23  2.300                                             
     0     -5.9785163     23  2.300                                             
     0      1.1858015     23  2.300                                             
     1     -2.7211652     23  2.300                                             
     1     13.2444212     23  2.300                                             
  local pseudopotential read in
  partial core-charges read in
  partial kinetic energy density read in
  atomic valenz-charges read in
  non local Contribution for L=           2  read in
    real space projection operators read in
  non local Contribution for L=           2  read in
    real space projection operators read in
  non local Contribution for L=           0  read in
    real space projection operators read in
  non local Contribution for L=           0  read in
    real space projection operators read in
  non local Contribution for L=           1  read in
    real space projection operators read in
  non local Contribution for L=           1  read in
    real space projection operators read in
    PAW grid and wavefunctions read in
 
   number of l-projection  operators is LMAX  =           6
   number of lm-projection operators is LMMAX =          18
 
  PAW_PBE Nb_sv 25May2007               :
 energy of atom  1       EATOM=-1555.1913
 kinetic energy error for atom=    0.0380 (will be added to EATOM!!)
  PAW_PBE Ru 04Feb2005                  :
 energy of atom  2       EATOM= -454.8837
 kinetic energy error for atom=    0.0048 (will be added to EATOM!!)
  PAW_PBE Ga 08Apr2002                  :
 energy of atom  3       EATOM=  -58.8688
 kinetic energy error for atom=    0.0001 (will be added to EATOM!!)
  PAW_PBE Zn 06Sep2000                  :
 energy of atom  4       EATOM=-1748.8345
 kinetic energy error for atom=    0.0236 (will be added to EATOM!!)
 
 
 POSCAR: Nb Ru Ga Zn                             
  positions in direct lattice
  No initial velocities read in
 exchange correlation table for  LEXCH =        8
   RHO(1)=    0.500       N(1)  =     2000
   RHO(2)=  100.500       N(2)  =     4000
 


--------------------------------------------------------------------------------------------------------


 ion  position               nearest neighbor table
   1  0.000  0.000  0.000-   4 2.69   4 2.69   4 2.69   2 2.69   2 2.69   2 2.69   4 2.69   2 2.69
                             3 3.11   3 3.11   3 3.11   3 3.11   3 3.11   3 3.11
   2  0.250  0.250  0.250-   1 2.69   1 2.69   1 2.69   3 2.69   3 2.69   3 2.69   3 2.69   1 2.69
                             4 3.11   4 3.11   4 3.11   4 3.11   4 3.11   4 3.11
   3  0.500  0.500  0.500-   2 2.69   2 2.69   2 2.69   4 2.69   4 2.69   4 2.69   4 2.69   2 2.69
                             1 3.11   1 3.11   1 3.11   1 3.11   1 3.11   1 3.11
   4  0.750  0.750  0.750-   3 2.69   3 2.69   3 2.69   1 2.69   1 2.69   1 2.69   3 2.69   1 2.69
                             2 3.11   2 3.11   2 3.11   2 3.11   2 3.11   2 3.11
 
  LATTYP: Found a face centered cubic cell.
 ALAT       =     6.2178182634
  
  Lattice vectors:
  
 A1 = (   0.0000000000,   3.1089091317,   3.1089091317)
 A2 = (   3.1089091317,   0.0000000000,   3.1089091317)
 A3 = (   3.1089091317,   3.1089091317,   0.0000000000)


Analysis of symmetry for initial positions (statically):
=====================================================================
 Subroutine PRICEL returns:
 Original cell was already a primitive cell.
 

 Routine SETGRP: Setting up the symmetry group for a 
 face centered cubic supercell.


 Subroutine GETGRP returns: Found 24 space group operations
 (whereof 24 operations were pure point group operations)
 out of a pool of 48 trial point group operations.


The static configuration has the point symmetry T_d .


Analysis of symmetry for dynamics (positions and initial velocities):
=====================================================================
 Subroutine PRICEL returns:
 Original cell was already a primitive cell.
 

 Routine SETGRP: Setting up the symmetry group for a 
 face centered cubic supercell.


 Subroutine GETGRP returns: Found 24 space group operations
 (whereof 24 operations were pure point group operations)
 out of a pool of 48 trial point group operations.


The dynamic configuration has the point symmetry T_d .


 irot  :   1
 --------------------------------------------------------------------
 isymop:   1   0   0
           0   1   0
           0   0   1

 gtrans:     0.0000000     0.0000000     0.0000000

 ptrans:     0.0000000     0.0000000     0.0000000
 rotmap:
 (   1->   1)  (   2->   2)  (   3->   3)  (   4->   4) 


 irot  :   2
 --------------------------------------------------------------------
 isymop:   0   0   1
           1   0   0
           0   1   0

 gtrans:     0.0000000     0.0000000     0.0000000

 ptrans:     0.0000000     0.0000000     0.0000000
 rotmap:
 (   1->   1)  (   2->   2)  (   3->   3)  (   4->   4) 


 irot  :   3
 --------------------------------------------------------------------
 isymop:   0   1   0
           0   0   1
           1   0   0

 gtrans:     0.0000000     0.0000000     0.0000000

 ptrans:     0.0000000     0.0000000     0.0000000
 rotmap:
 (   1->   1)  (   2->   2)  (   3->   3)  (   4->   4) 


 irot  :   4
 --------------------------------------------------------------------
 isymop:  -1  -1  -1
           0   0   1
           1   0   0

 gtrans:     0.0000000     0.0000000     0.0000000

 ptrans:     0.0000000     0.0000000     0.0000000
 rotmap:
 (   1->   1)  (   2->   2)  (   3->   3)  (   4->   4) 


 irot  :   5
 --------------------------------------------------------------------
 isymop:  -1  -1  -1
           0   1   0
           0   0   1

 gtrans:     0.0000000     0.0000000     0.0000000

 ptrans:     0.0000000     0.0000000     0.0000000
 rotmap:
 (   1->   1)  (   2->   2)  (   3->   3)  (   4->   4) 


 irot  :   6
 --------------------------------------------------------------------
 isymop:  -1  -1  -1
           1   0   0
           0   1   0

 gtrans:     0.0000000     0.0000000     0.0000000

 ptrans:     0.0000000     0.0000000     0.0000000
 rotmap:
 (   1->   1)  (   2->   2)  (   3->   3)  (   4->   4) 


 irot  :   7
 --------------------------------------------------------------------
 isymop:   0   1   0
           1   0   0
          -1  -1  -1

 gtrans:     0.0000000     0.0000000     0.0000000

 ptrans:     0.0000000     0.0000000     0.0000000
 rotmap:
 (   1->   1)  (   2->   2)  (   3->   3)  (   4->   4) 


 irot  :   8
 --------------------------------------------------------------------
 isymop:   1   0   0
           0   0   1
          -1  -1  -1

 gtrans:     0.0000000     0.0000000     0.0000000

 ptrans:     0.0000000     0.0000000     0.0000000
 rotmap:
 (   1->   1)  (   2->   2)  (   3->   3)  (   4->   4) 


 irot  :   9
 --------------------------------------------------------------------
 isymop:   0   0   1
           0   1   0
          -1  -1  -1

 gtrans:     0.0000000     0.0000000     0.0000000

 ptrans:     0.0000000     0.0000000     0.0000000
 rotmap:
 (   1->   1)  (   2->   2)  (   3->   3)  (   4->   4) 


 irot  :  10
 --------------------------------------------------------------------
 isymop:   0   0   1
          -1  -1  -1
           0   1   0

 gtrans:     0.0000000     0.0000000     0.0000000

 ptrans:     0.0000000     0.0000000     0.0000000
 rotmap:
 (   1->   1)  (   2->   2)  (   3->   3)  (   4->   4) 


 irot  :  11
 --------------------------------------------------------------------
 isymop:   0   1   0
          -1  -1  -1
           1   0   0

 gtrans:     0.0000000     0.0000000     0.0000000

 ptrans:     0.0000000     0.0000000     0.0000000
 rotmap:
 (   1->   1)  (   2->   2)  (   3->   3)  (   4->   4) 


 irot  :  12
 --------------------------------------------------------------------
 isymop:   1   0   0
          -1  -1  -1
           0   0   1

 gtrans:     0.0000000     0.0000000     0.0000000

 ptrans:     0.0000000     0.0000000     0.0000000
 rotmap:
 (   1->   1)  (   2->   2)  (   3->   3)  (   4->   4) 


 irot  :  13
 --------------------------------------------------------------------
 isymop:  -1  -1  -1
           0   1   0
           1   0   0

 gtrans:     0.0000000     0.0000000     0.0000000

 ptrans:     0.0000000     0.0000000     0.0000000
 rotmap:
 (   1->   1)  (   2->   2)  (   3->   3)  (   4->   4) 


 irot  :  14
 --------------------------------------------------------------------
 isymop:  -1  -1  -1
           1   0   0
           0   0   1

 gtrans:     0.0000000     0.0000000     0.0000000

 ptrans:     0.0000000     0.0000000     0.0000000
 rotmap:
 (   1->   1)  (   2->   2)  (   3->   3)  (   4->   4) 


 irot  :  15
 --------------------------------------------------------------------
 isymop:  -1  -1  -1
           0   0   1
           0   1   0

 gtrans:     0.0000000     0.0000000     0.0000000

 ptrans:     0.0000000     0.0000000     0.0000000
 rotmap:
 (   1->   1)  (   2->   2)  (   3->   3)  (   4->   4) 


 irot  :  16
 --------------------------------------------------------------------
 isymop:   0   1   0
           0   0   1
          -1  -1  -1

 gtrans:     0.0000000     0.0000000     0.0000000

 ptrans:     0.0000000     0.0000000     0.0000000
 rotmap:
 (   1->   1)  (   2->   2)  (   3->   3)  (   4->   4) 


 irot  :  17
 --------------------------------------------------------------------
 isymop:   1   0   0
           0   1   0
          -1  -1  -1

 gtrans:     0.0000000     0.0000000     0.0000000

 ptrans:     0.0000000     0.0000000     0.0000000
 rotmap:
 (   1->   1)  (   2->   2)  (   3->   3)  (   4->   4) 


 irot  :  18
 --------------------------------------------------------------------
 isymop:   0   0   1
           1   0   0
          -1  -1  -1

 gtrans:     0.0000000     0.0000000     0.0000000

 ptrans:     0.0000000     0.0000000     0.0000000
 rotmap:
 (   1->   1)  (   2->   2)  (   3->   3)  (   4->   4) 


 irot  :  19
 --------------------------------------------------------------------
 isymop:   1   0   0
          -1  -1  -1
           0   1   0

 gtrans:     0.0000000     0.0000000     0.0000000

 ptrans:     0.0000000     0.0000000     0.0000000
 rotmap:
 (   1->   1)  (   2->   2)  (   3->   3)  (   4->   4) 


 irot  :  20
 --------------------------------------------------------------------
 isymop:   0   0   1
          -1  -1  -1
           1   0   0

 gtrans:     0.0000000     0.0000000     0.0000000

 ptrans:     0.0000000     0.0000000     0.0000000
 rotmap:
 (   1->   1)  (   2->   2)  (   3->   3)  (   4->   4) 


 irot  :  21
 --------------------------------------------------------------------
 isymop:   0   1   0
          -1  -1  -1
           0   0   1

 gtrans:     0.0000000     0.0000000     0.0000000

 ptrans:     0.0000000     0.0000000     0.0000000
 rotmap:
 (   1->   1)  (   2->   2)  (   3->   3)  (   4->   4) 


 irot  :  22
 --------------------------------------------------------------------
 isymop:   1   0   0
           0   0   1
           0   1   0

 gtrans:     0.0000000     0.0000000     0.0000000

 ptrans:     0.0000000     0.0000000     0.0000000
 rotmap:
 (   1->   1)  (   2->   2)  (   3->   3)  (   4->   4) 


 irot  :  23
 --------------------------------------------------------------------
 isymop:   0   1   0
           1   0   0
           0   0   1

 gtrans:     0.0000000     0.0000000     0.0000000

 ptrans:     0.0000000     0.0000000     0.0000000
 rotmap:
 (   1->   1)  (   2->   2)  (   3->   3)  (   4->   4) 


 irot  :  24
 --------------------------------------------------------------------
 isymop:   0   0   1
           0   1   0
           1   0   0

 gtrans:     0.0000000     0.0000000     0.0000000

 ptrans:     0.0000000     0.0000000     0.0000000
 rotmap:
 (   1->   1)  (   2->   2)  (   3->   3)  (   4->   4) 
 
 
 KPOINTS: KPOINTS created by HTE                  

Automatic generation of k-mesh.
Space group operators:
 irot       det(A)        alpha          n_x          n_y          n_z        tau_x        tau_y        tau_z
    1     1.000000     0.000000     1.000000     0.000000     0.000000     0.000000     0.000000     0.000000
    2     1.000000   120.000000    -0.577350    -0.577350    -0.577350     0.000000     0.000000     0.000000
    3     1.000000   120.000000     0.577350     0.577350     0.577350     0.000000     0.000000     0.000000
    4    -1.000000    90.000000     0.000000     0.000000    -1.000000     0.000000     0.000000     0.000000
    5    -1.000000   180.000000     0.000000     0.707107     0.707107     0.000000     0.000000     0.000000
    6    -1.000000    90.000000     0.000000     1.000000     0.000000     0.000000     0.000000     0.000000
    7     1.000000   180.000000     0.000000     0.000000     1.000000     0.000000     0.000000     0.000000
    8     1.000000   120.000000    -0.577350     0.577350     0.577350     0.000000     0.000000     0.000000
    9     1.000000   120.000000    -0.577350     0.577350    -0.577350     0.000000     0.000000     0.000000
   10    -1.000000    90.000000     0.000000     0.000000     1.000000     0.000000     0.000000     0.000000
   11    -1.000000    90.000000    -1.000000     0.000000     0.000000     0.000000     0.000000     0.000000
   12    -1.000000   180.000000     0.707107     0.000000     0.707107     0.000000     0.000000     0.000000
   13     1.000000   120.000000     0.577350    -0.577350     0.577350     0.000000     0.000000     0.000000
   14     1.000000   120.000000    -0.577350    -0.577350     0.577350     0.000000     0.000000     0.000000
   15     1.000000   180.000000     1.000000     0.000000     0.000000     0.000000     0.000000     0.000000
   16    -1.000000    90.000000     0.000000    -1.000000     0.000000     0.000000     0.000000     0.000000
   17    -1.000000   180.000000     0.707107     0.707107     0.000000     0.000000     0.000000     0.000000
   18    -1.000000    90.000000     1.000000     0.000000     0.000000     0.000000     0.000000     0.000000
   19     1.000000   120.000000     0.577350    -0.577350    -0.577350     0.000000     0.000000     0.000000
   20     1.000000   180.000000     0.000000     1.000000     0.000000     0.000000     0.000000     0.000000
   21     1.000000   120.000000     0.577350     0.577350    -0.577350     0.000000     0.000000     0.000000
   22    -1.000000   180.000000     0.000000    -0.707107     0.707107     0.000000     0.000000     0.000000
   23    -1.000000   180.000000     0.707107    -0.707107     0.000000     0.000000     0.000000     0.000000
   24    -1.000000   180.000000     0.707107     0.000000    -0.707107     0.000000     0.000000     0.000000
 
 Subroutine IBZKPT returns following result:
 ===========================================
 
 Found     72 irreducible k-points:
 
 Following reciprocal coordinates:
            Coordinates               Weight
  0.000000  0.000000  0.000000      1.000000
  0.083333  0.000000  0.000000      8.000000
  0.166667  0.000000  0.000000      8.000000
  0.250000  0.000000  0.000000      8.000000
  0.333333  0.000000  0.000000      8.000000
  0.416667  0.000000  0.000000      8.000000
  0.500000  0.000000  0.000000      4.000000
  0.083333  0.083333  0.000000      6.000000
  0.166667  0.083333  0.000000     24.000000
  0.250000  0.083333  0.000000     24.000000
  0.333333  0.083333  0.000000     24.000000
  0.416667  0.083333  0.000000     24.000000
  0.500000  0.083333  0.000000     24.000000
 -0.416667  0.083333  0.000000     24.000000
 -0.333333  0.083333  0.000000     24.000000
 -0.250000  0.083333  0.000000     24.000000
 -0.166667  0.083333  0.000000     24.000000
 -0.083333  0.083333  0.000000     12.000000
  0.166667  0.166667  0.000000      6.000000
  0.250000  0.166667  0.000000     24.000000
  0.333333  0.166667  0.000000     24.000000
  0.416667  0.166667  0.000000     24.000000
  0.500000  0.166667  0.000000     24.000000
 -0.416667  0.166667  0.000000     24.000000
 -0.333333  0.166667  0.000000     24.000000
 -0.250000  0.166667  0.000000     24.000000
 -0.166667  0.166667  0.000000     12.000000
  0.250000  0.250000  0.000000      6.000000
  0.333333  0.250000  0.000000     24.000000
  0.416667  0.250000  0.000000     24.000000
  0.500000  0.250000  0.000000     24.000000
 -0.416667  0.250000  0.000000     24.000000
 -0.333333  0.250000  0.000000     24.000000
 -0.250000  0.250000  0.000000     12.000000
  0.333333  0.333333  0.000000      6.000000
  0.416667  0.333333  0.000000     24.000000
  0.500000  0.333333  0.000000     24.000000
 -0.416667  0.333333  0.000000     24.000000
 -0.333333  0.333333  0.000000     12.000000
  0.416667  0.416667  0.000000      6.000000
  0.500000  0.416667  0.000000     24.000000
 -0.416667  0.416667  0.000000     12.000000
  0.500000  0.500000  0.000000      3.000000
  0.250000  0.166667  0.083333     24.000000
  0.333333  0.166667  0.083333     48.000000
  0.416667  0.166667  0.083333     48.000000
  0.500000  0.166667  0.083333     48.000000
 -0.416667  0.166667  0.083333     24.000000
  0.333333  0.250000  0.083333     24.000000
  0.416667  0.250000  0.083333     48.000000
  0.500000  0.250000  0.083333     48.000000
 -0.416667  0.250000  0.083333     48.000000
 -0.333333  0.250000  0.083333     48.000000
 -0.250000  0.250000  0.083333     48.000000
 -0.166667  0.250000  0.083333     24.000000
  0.416667  0.333333  0.083333     24.000000
  0.500000  0.333333  0.083333     48.000000
 -0.416667  0.333333  0.083333     48.000000
 -0.333333  0.333333  0.083333     48.000000
 -0.250000  0.333333  0.083333     24.000000
  0.500000  0.416667  0.083333     24.000000
 -0.416667  0.416667  0.083333     48.000000
 -0.333333  0.416667  0.083333     24.000000
 -0.416667  0.500000  0.083333     12.000000
  0.500000  0.333333  0.166667     24.000000
 -0.416667  0.333333  0.166667     48.000000
 -0.333333  0.333333  0.166667     24.000000
 -0.416667  0.416667  0.166667     24.000000
 -0.333333  0.416667  0.166667     48.000000
 -0.250000  0.416667  0.166667     24.000000
 -0.333333  0.500000  0.166667     12.000000
 -0.250000  0.500000  0.250000      6.000000
 
 Following cartesian coordinates:
            Coordinates               Weight
  0.000000  0.000000  0.000000      1.000000
 -0.013402  0.013402  0.013402      8.000000
 -0.026805  0.026805  0.026805      8.000000
 -0.040207  0.040207  0.040207      8.000000
 -0.053609  0.053609  0.053609      8.000000
 -0.067012  0.067012  0.067012      8.000000
 -0.080414  0.080414  0.080414      4.000000
  0.000000  0.000000  0.026805      6.000000
 -0.013402  0.013402  0.040207     24.000000
 -0.026805  0.026805  0.053609     24.000000
 -0.040207  0.040207  0.067012     24.000000
 -0.053609  0.053609  0.080414     24.000000
 -0.067012  0.067012  0.093816     24.000000
  0.080414 -0.080414 -0.053609     24.000000
  0.067012 -0.067012 -0.040207     24.000000
  0.053609 -0.053609 -0.026805     24.000000
  0.040207 -0.040207 -0.013402     24.000000
  0.026805 -0.026805  0.000000     12.000000
  0.000000  0.000000  0.053609      6.000000
 -0.013402  0.013402  0.067012     24.000000
 -0.026805  0.026805  0.080414     24.000000
 -0.040207  0.040207  0.093816     24.000000
 -0.053609  0.053609  0.107219     24.000000
  0.093816 -0.093816 -0.040207     24.000000
  0.080414 -0.080414 -0.026805     24.000000
  0.067012 -0.067012 -0.013402     24.000000
  0.053609 -0.053609  0.000000     12.000000
  0.000000  0.000000  0.080414      6.000000
 -0.013402  0.013402  0.093816     24.000000
 -0.026805  0.026805  0.107219     24.000000
 -0.040207  0.040207  0.120621     24.000000
  0.107219 -0.107219 -0.026805     24.000000
  0.093816 -0.093816 -0.013402     24.000000
  0.080414 -0.080414  0.000000     12.000000
  0.000000  0.000000  0.107219      6.000000
 -0.013402  0.013402  0.120621     24.000000
 -0.026805  0.026805  0.134023     24.000000
  0.120621 -0.120621 -0.013402     24.000000
  0.107219 -0.107219  0.000000     12.000000
  0.000000  0.000000  0.134023      6.000000
 -0.013402  0.013402  0.147426     24.000000
  0.134023 -0.134023  0.000000     12.000000
  0.000000  0.000000  0.160828      3.000000
 -0.000000  0.026805  0.053609     24.000000
 -0.013402  0.040207  0.067012     48.000000
 -0.026805  0.053609  0.080414     48.000000
 -0.040207  0.067012  0.093816     48.000000
  0.107219 -0.080414 -0.053609     24.000000
  0.000000  0.026805  0.080414     24.000000
 -0.013402  0.040207  0.093816     48.000000
 -0.026805  0.053609  0.107219     48.000000
  0.120621 -0.093816 -0.040207     48.000000
  0.107219 -0.080414 -0.026805     48.000000
  0.093816 -0.067012 -0.013402     48.000000
  0.080414 -0.053609  0.000000     24.000000
 -0.000000  0.026805  0.107219     24.000000
 -0.013402  0.040207  0.120621     48.000000
  0.134023 -0.107219 -0.026805     48.000000
  0.120621 -0.093816 -0.013402     48.000000
  0.107219 -0.080414 -0.000000     24.000000
  0.000000  0.026805  0.134023     24.000000
  0.147426 -0.120621 -0.013402     48.000000
  0.134023 -0.107219  0.000000     24.000000
  0.160828 -0.134023 -0.000000     12.000000
 -0.000000  0.053609  0.107219     24.000000
  0.147426 -0.093816 -0.040207     48.000000
  0.134023 -0.080414 -0.026805     24.000000
  0.160828 -0.107219 -0.026805     24.000000
  0.147426 -0.093816 -0.013402     48.000000
  0.134023 -0.080414  0.000000     24.000000
  0.160828 -0.107219  0.000000     12.000000
  0.160828 -0.080414  0.000000      6.000000
 


--------------------------------------------------------------------------------------------------------




 Dimension of arrays:
   k-points           NKPTS =     72   k-points in BZ     NKDIM =     72   number of bands    NBANDS=     24
   number of dos      NEDOS =    301   number of ions     NIONS =      4
   non local maximal  LDIM  =      6   non local SUM 2l+1 LMDIM =     18
   total plane-waves  NPLWV =  21952
   max r-space proj   IRMAX =      1   max aug-charges    IRDMAX=   7173
   dimension x,y,z NGX =    28 NGY =   28 NGZ =   28
   dimension x,y,z NGXF=    36 NGYF=   36 NGZF=   36
   support grid    NGXF=    36 NGYF=   36 NGZF=   36
   ions per type =               1   1   1   1
 NGX,Y,Z   is equivalent  to a cutoff of  10.59, 10.59, 10.59 a.u.
 NGXF,Y,Z  is equivalent  to a cutoff of  13.61, 13.61, 13.61 a.u.


 I would recommend the setting:
   dimension x,y,z NGX =    27 NGY =   27 NGZ =   27
 SYSTEM =  unknown system                          
 POSCAR =  Nb Ru Ga Zn                             

 Startparameter for this run:
   NWRITE =      2    write-flag & timer
   PREC   = high      normal or accurate (medium, high low for compatibility)
   ISTART =      0    job   : 0-new  1-cont  2-samecut
   ICHARG =      2    charge: 1-file 2-atom 10-const
   ISPIN  =      1    spin polarized calculation?
   LNONCOLLINEAR =      F non collinear calculations
   LSORBIT =      F    spin-orbit coupling
   INIWAV =      1    electr: 0-lowe 1-rand  2-diag
   LASPH  =      F    aspherical Exc in radial PAW
   METAGGA=      F    non-selfconsistent MetaGGA calc.

 Electronic Relaxation 1
   ENCUT  =  350.0 eV  25.72 Ry    5.07 a.u.   6.71  6.71  6.71*2*pi/ulx,y,z
   ENINI  =  350.0     initial cutoff
   ENAUG  =  350.0 eV  augmentation charge cutoff
   NELM   =     60;   NELMIN=  2; NELMDL= -5     # of ELM steps 
   EDIFF  = 0.1E-03   stopping-criterion for ELM
   LREAL  =      F    real-space projection
   NLSPLINE    = F    spline interpolate recip. space projectors
   LCOMPAT=      F    compatible to vasp.4.4
   GGA_COMPAT  = T    GGA compatible to vasp.4.4-vasp.4.6
   LMAXPAW     = -100 max onsite density
   LMAXMIX     =    2 max onsite mixed and CHGCAR
   VOSKOWN=      0    Vosko Wilk Nusair interpolation
   ROPT   =    0.00000   0.00000   0.00000   0.00000
 Ionic relaxation
   EDIFFG = 0.1E-02   stopping-criterion for IOM
   NSW    =     40    number of steps for IOM
   NBLOCK =      1;   KBLOCK =     40    inner block; outer block 
   IBRION =      2    ionic relax: 0-MD 1-quasi-New 2-CG
   NFREE  =      1    steps in history (QN), initial steepest desc. (CG)
   ISIF   =      3    stress and relaxation
   IWAVPR =     11    prediction:  0-non 1-charg 2-wave 3-comb
   ISYM   =      2    0-nonsym 1-usesym 2-fastsym
   LCORR  =      T    Harris-Foulkes like correction to forces

   POTIM  = 0.5000    time-step for ionic-motion
   TEIN   =    0.0    initial temperature
   TEBEG  =    0.0;   TEEND  =   0.0 temperature during run
   SMASS  =  -3.00    Nose mass-parameter (am)
   estimated Nose-frequenzy (Omega)   =  0.10E-29 period in steps =****** mass=  -0.442E-27a.u.
   SCALEE = 1.0000    scale energy and forces
   NPACO  =    256;   APACO  = 16.0  distance and # of slots for P.C.
   PSTRESS=    0.0 pullay stress

  Mass of Ions in am
   POMASS =  92.91101.07 69.72 65.39
  Ionic Valenz
   ZVAL   =  13.00  8.00  3.00 12.00
  Atomic Wigner-Seitz radii
   RWIGS  =  -1.00 -1.00 -1.00 -1.00
  virtual crystal weights 
   VCA    =   1.00  1.00  1.00  1.00
   NELECT =      36.0000    total number of electrons
   NUPDOWN=      -1.0000    fix difference up-down

 DOS related values:
   EMIN   =  10.00;   EMAX   =-10.00  energy-range for DOS
   EFERMI =   0.00
   ISMEAR =     1;   SIGMA  =   0.20  broadening in eV -4-tet -1-fermi 0-gaus

 Electronic relaxation 2 (details)
   IALGO  =     68    algorithm
   LDIAG  =      T    sub-space diagonalisation (order eigenvalues)
   LSUBROT=      T    optimize rotation matrix (better conditioning)
   TURBO    =      0    0=normal 1=particle mesh
   IRESTART =      0    0=no restart 2=restart with 2 vectors
   NREBOOT  =      0    no. of reboots
   NMIN     =      0    reboot dimension
   EREF     =   0.00    reference energy to select bands
   IMIX   =      4    mixing-type and parameters
     AMIX     =   0.40;   BMIX     =  1.00
     AMIX_MAG =   1.60;   BMIX_MAG =  1.00
     AMIN     =   0.10
     WC   =   100.;   INIMIX=   1;  MIXPRE=   1;  MAXMIX= -45

 Intra band minimization:
   WEIMIN = 0.0010     energy-eigenvalue tresh-hold
   EBREAK =  0.10E-05  absolut break condition
   DEPER  =   0.30     relativ break condition  

   TIME   =   0.40     timestep for ELM

  volume/ion in A,a.u.               =      15.02       101.39
  Fermi-wavevector in a.u.,A,eV,Ry     =   1.380038  2.607893 25.912353  1.904504
  Thomas-Fermi vector in A             =   2.504952
 
 Write flags
   LWAVE  =      F    write WAVECAR
   LCHARG =      F    write CHGCAR
   LVTOT  =      F    write LOCPOT, total local potential
   LVHAR  =      F    write LOCPOT, Hartree potential only
   LELF   =      F    write electronic localiz. function (ELF)
   LORBIT =      0    0 simple, 1 ext, 2 COOP (PROOUT)


 Dipole corrections
   LMONO  =      F    monopole corrections only (constant potential shift)
   LDIPOL =      F    correct potential (dipole corrections)
   IDIPOL =      0    1-x, 2-y, 3-z, 4-all directions 
   EPSILON=  1.0000000 bulk dielectric constant

 Exchange correlation treatment:
   GGA     =    --    GGA type
   LEXCH   =     8    internal setting for exchange type
   VOSKOWN=      0    Vosko Wilk Nusair interpolation
   LHFCALC =     F    Hartree Fock is set to
   LHFONE  =     F    Hartree Fock one center treatment
   AEXX    =    0.0000 exact exchange contribution

 Linear response parameters
   LEPSILON=     F    determine dielectric tensor
   LRPA    =     F    only Hartree local field effects (RPA)
   LNABLA  =     F    use nabla operator in PAW spheres
   LVEL    =     F    velocity operator in full k-point grid
   LINTERFAST=   F  fast interpolation
   KINTER  =     0    interpolate to denser k-point grid
   CSHIFT  =0.1000    complex shift for real part using Kramers Kronig
   OMEGAMAX=  -1.0    maximum frequency
   DEG_THRESHOLD= 0.2000000E-02 threshold for treating states as degnerate
   RTIME   =    0.100 relaxation time in fs

 Orbital magnetization related:
   ORBITALMAG=     F  switch on orbital magnetization
   LCHIMAG   =     F  perturbation theory with respect to B field
   DQ        =  0.001000  dq finite difference perturbation B field



--------------------------------------------------------------------------------------------------------


 conjugate gradient relaxation of ions
 charge density and potential will be updated during run
 non-spin polarized calculation
 RMM-DIIS sequential band-by-band and
  variant of blocked Davidson during initial phase
 perform sub-space diagonalisation
    before iterative eigenvector-optimisation
 modified Broyden-mixing scheme, WC =      100.0
 initial mixing is a Kerker type mixing with AMIX =  0.4000 and BMIX =      1.0000
 Hartree-type preconditioning will be used
 using additional bands            6
 reciprocal scheme for non local part
 use partial core corrections
 calculate Harris-corrections to forces 
   (improved forces if not selfconsistent)
 use gradient corrections 
 use of overlap-Matrix (Vanderbilt PP)
 Methfessel and Paxton  Order N= 1 SIGMA  =   0.20


--------------------------------------------------------------------------------------------------------


  energy-cutoff  :      350.00
  volume of cell :       60.10
      direct lattice vectors                 reciprocal lattice vectors
     0.000000000  3.108909132  3.108909132    -0.160828116  0.160828116  0.160828116
     3.108909132  0.000000000  3.108909132     0.160828116 -0.160828116  0.160828116
     3.108909132  3.108909132  0.000000000     0.160828116  0.160828116 -0.160828116

  length of vectors
     4.396661458  4.396661458  4.396661458     0.278562469  0.278562469  0.278562469


 
 k-points in units of 2pi/SCALE and weight: KPOINTS created by HTE                  
   0.00000000  0.00000000  0.00000000       0.001
  -0.01340234  0.01340234  0.01340234       0.005
  -0.02680469  0.02680469  0.02680469       0.005
  -0.04020703  0.04020703  0.04020703       0.005
  -0.05360937  0.05360937  0.05360937       0.005
  -0.06701172  0.06701172  0.06701172       0.005
  -0.08041406  0.08041406  0.08041406       0.002
   0.00000000  0.00000000  0.02680469       0.003
  -0.01340234  0.01340234  0.04020703       0.014
  -0.02680469  0.02680469  0.05360937       0.014
  -0.04020703  0.04020703  0.06701172       0.014
  -0.05360937  0.05360937  0.08041406       0.014
  -0.06701172  0.06701172  0.09381640       0.014
   0.08041406 -0.08041406 -0.05360937       0.014
   0.06701172 -0.06701172 -0.04020703       0.014
   0.05360937 -0.05360937 -0.02680469       0.014
   0.04020703 -0.04020703 -0.01340234       0.014
   0.02680469 -0.02680469  0.00000000       0.007
   0.00000000  0.00000000  0.05360937       0.003
  -0.01340234  0.01340234  0.06701172       0.014
  -0.02680469  0.02680469  0.08041406       0.014
  -0.04020703  0.04020703  0.09381640       0.014
  -0.05360937  0.05360937  0.10721874       0.014
   0.09381640 -0.09381640 -0.04020703       0.014
   0.08041406 -0.08041406 -0.02680469       0.014
   0.06701172 -0.06701172 -0.01340234       0.014
   0.05360937 -0.05360937  0.00000000       0.007
   0.00000000  0.00000000  0.08041406       0.003
  -0.01340234  0.01340234  0.09381640       0.014
  -0.02680469  0.02680469  0.10721874       0.014
  -0.04020703  0.04020703  0.12062109       0.014
   0.10721874 -0.10721874 -0.02680469       0.014
   0.09381640 -0.09381640 -0.01340234       0.014
   0.08041406 -0.08041406  0.00000000       0.007
   0.00000000  0.00000000  0.10721874       0.003
  -0.01340234  0.01340234  0.12062109       0.014
  -0.02680469  0.02680469  0.13402343       0.014
   0.12062109 -0.12062109 -0.01340234       0.014
   0.10721874 -0.10721874  0.00000000       0.007
   0.00000000  0.00000000  0.13402343       0.003
  -0.01340234  0.01340234  0.14742577       0.014
   0.13402343 -0.13402343  0.00000000       0.007
   0.00000000  0.00000000  0.16082812       0.002
  -0.00000000  0.02680469  0.05360937       0.014
  -0.01340234  0.04020703  0.06701172       0.028
  -0.02680469  0.05360937  0.08041406       0.028
  -0.04020703  0.06701172  0.09381640       0.028
   0.10721874 -0.08041406 -0.05360937       0.014
   0.00000000  0.02680469  0.08041406       0.014
  -0.01340234  0.04020703  0.09381640       0.028
  -0.02680469  0.05360937  0.10721874       0.028
   0.12062109 -0.09381640 -0.04020703       0.028
   0.10721874 -0.08041406 -0.02680469       0.028
   0.09381640 -0.06701172 -0.01340234       0.028
   0.08041406 -0.05360937  0.00000000       0.014
  -0.00000000  0.02680469  0.10721874       0.014
  -0.01340234  0.04020703  0.12062109       0.028
   0.13402343 -0.10721874 -0.02680469       0.028
   0.12062109 -0.09381640 -0.01340234       0.028
   0.10721874 -0.08041406 -0.00000000       0.014
   0.00000000  0.02680469  0.13402343       0.014
   0.14742577 -0.12062109 -0.01340234       0.028
   0.13402343 -0.10721874  0.00000000       0.014
   0.16082812 -0.13402343 -0.00000000       0.007
  -0.00000000  0.05360937  0.10721874       0.014
   0.14742577 -0.09381640 -0.04020703       0.028
   0.13402343 -0.08041406 -0.02680469       0.014
   0.16082812 -0.10721874 -0.02680469       0.014
   0.14742577 -0.09381640 -0.01340234       0.028
   0.13402343 -0.08041406  0.00000000       0.014
   0.16082812 -0.10721874  0.00000000       0.007
   0.16082812 -0.08041406  0.00000000       0.003
 
 k-points in reciprocal lattice and weights: KPOINTS created by HTE                  
   0.00000000  0.00000000  0.00000000       0.001
   0.08333333  0.00000000  0.00000000       0.005
   0.16666667  0.00000000  0.00000000       0.005
   0.25000000  0.00000000  0.00000000       0.005
   0.33333333  0.00000000  0.00000000       0.005
   0.41666667  0.00000000  0.00000000       0.005
   0.50000000  0.00000000  0.00000000       0.002
   0.08333333  0.08333333  0.00000000       0.003
   0.16666667  0.08333333  0.00000000       0.014
   0.25000000  0.08333333  0.00000000       0.014
   0.33333333  0.08333333  0.00000000       0.014
   0.41666667  0.08333333  0.00000000       0.014
   0.50000000  0.08333333  0.00000000       0.014
  -0.41666667  0.08333333  0.00000000       0.014
  -0.33333333  0.08333333  0.00000000       0.014
  -0.25000000  0.08333333  0.00000000       0.014
  -0.16666667  0.08333333  0.00000000       0.014
  -0.08333333  0.08333333  0.00000000       0.007
   0.16666667  0.16666667  0.00000000       0.003
   0.25000000  0.16666667  0.00000000       0.014
   0.33333333  0.16666667  0.00000000       0.014
   0.41666667  0.16666667  0.00000000       0.014
   0.50000000  0.16666667  0.00000000       0.014
  -0.41666667  0.16666667  0.00000000       0.014
  -0.33333333  0.16666667  0.00000000       0.014
  -0.25000000  0.16666667  0.00000000       0.014
  -0.16666667  0.16666667  0.00000000       0.007
   0.25000000  0.25000000  0.00000000       0.003
   0.33333333  0.25000000  0.00000000       0.014
   0.41666667  0.25000000  0.00000000       0.014
   0.50000000  0.25000000  0.00000000       0.014
  -0.41666667  0.25000000  0.00000000       0.014
  -0.33333333  0.25000000  0.00000000       0.014
  -0.25000000  0.25000000  0.00000000       0.007
   0.33333333  0.33333333  0.00000000       0.003
   0.41666667  0.33333333  0.00000000       0.014
   0.50000000  0.33333333  0.00000000       0.014
  -0.41666667  0.33333333  0.00000000       0.014
  -0.33333333  0.33333333  0.00000000       0.007
   0.41666667  0.41666667  0.00000000       0.003
   0.50000000  0.41666667  0.00000000       0.014
  -0.41666667  0.41666667  0.00000000       0.007
   0.50000000  0.50000000  0.00000000       0.002
   0.25000000  0.16666667  0.08333333       0.014
   0.33333333  0.16666667  0.08333333       0.028
   0.41666667  0.16666667  0.08333333       0.028
   0.50000000  0.16666667  0.08333333       0.028
  -0.41666667  0.16666667  0.08333333       0.014
   0.33333333  0.25000000  0.08333333       0.014
   0.41666667  0.25000000  0.08333333       0.028
   0.50000000  0.25000000  0.08333333       0.028
  -0.41666667  0.25000000  0.08333333       0.028
  -0.33333333  0.25000000  0.08333333       0.028
  -0.25000000  0.25000000  0.08333333       0.028
  -0.16666667  0.25000000  0.08333333       0.014
   0.41666667  0.33333333  0.08333333       0.014
   0.50000000  0.33333333  0.08333333       0.028
  -0.41666667  0.33333333  0.08333333       0.028
  -0.33333333  0.33333333  0.08333333       0.028
  -0.25000000  0.33333333  0.08333333       0.014
   0.50000000  0.41666667  0.08333333       0.014
  -0.41666667  0.41666667  0.08333333       0.028
  -0.33333333  0.41666667  0.08333333       0.014
  -0.41666667  0.50000000  0.08333333       0.007
   0.50000000  0.33333333  0.16666667       0.014
  -0.41666667  0.33333333  0.16666667       0.028
  -0.33333333  0.33333333  0.16666667       0.014
  -0.41666667  0.41666667  0.16666667       0.014
  -0.33333333  0.41666667  0.16666667       0.028
  -0.25000000  0.41666667  0.16666667       0.014
  -0.33333333  0.50000000  0.16666667       0.007
  -0.25000000  0.50000000  0.25000000       0.003
 
 position of ions in fractional coordinates (direct lattice) 
   0.00000000  0.00000000  0.00000000
   0.25000000  0.25000000  0.25000000
   0.50000000  0.50000000  0.50000000
   0.75000000  0.75000000  0.75000000
 
 position of ions in cartesian coordinates  (Angst):
   0.00000000  0.00000000  0.00000000
   1.55445457  1.55445457  1.55445457
   3.10890913  3.10890913  3.10890913
   4.66336370  4.66336370  4.66336370
 


--------------------------------------------------------------------------------------------------------


 k-point  1 :   0.0000 0.0000 0.0000  plane waves:     893
 k-point  2 :   0.0833 0.0000 0.0000  plane waves:     908
 k-point  3 :   0.1667 0.0000 0.0000  plane waves:     911
 k-point  4 :   0.2500 0.0000 0.0000  plane waves:     896
 k-point  5 :   0.3333 0.0000 0.0000  plane waves:     896
 k-point  6 :   0.4167 0.0000 0.0000  plane waves:     893
 k-point  7 :   0.5000 0.0000 0.0000  plane waves:     886
 k-point  8 :   0.0833 0.0833 0.0000  plane waves:     893
 k-point  9 :   0.1667 0.0833 0.0000  plane waves:     902
 k-point 10 :   0.2500 0.0833 0.0000  plane waves:     901
 k-point 11 :   0.3333 0.0833 0.0000  plane waves:     895
 k-point 12 :   0.4167 0.0833 0.0000  plane waves:     897
 k-point 13 :   0.5000 0.0833 0.0000  plane waves:     889
 k-point 14 :  -0.4167 0.0833 0.0000  plane waves:     893
 k-point 15 :  -0.3333 0.0833 0.0000  plane waves:     892
 k-point 16 :  -0.2500 0.0833 0.0000  plane waves:     897
 k-point 17 :  -0.1667 0.0833 0.0000  plane waves:     905
 k-point 18 :  -0.0833 0.0833 0.0000  plane waves:     907
 k-point 19 :   0.1667 0.1667 0.0000  plane waves:     897
 k-point 20 :   0.2500 0.1667 0.0000  plane waves:     889
 k-point 21 :   0.3333 0.1667 0.0000  plane waves:     883
 k-point 22 :   0.4167 0.1667 0.0000  plane waves:     892
 k-point 23 :   0.5000 0.1667 0.0000  plane waves:     886
 k-point 24 :  -0.4167 0.1667 0.0000  plane waves:     895
 k-point 25 :  -0.3333 0.1667 0.0000  plane waves:     895
 k-point 26 :  -0.2500 0.1667 0.0000  plane waves:     893
 k-point 27 :  -0.1667 0.1667 0.0000  plane waves:     905
 k-point 28 :   0.2500 0.2500 0.0000  plane waves:     881
 k-point 29 :   0.3333 0.2500 0.0000  plane waves:     887
 k-point 30 :   0.4167 0.2500 0.0000  plane waves:     890
 k-point 31 :   0.5000 0.2500 0.0000  plane waves:     892
 k-point 32 :  -0.4167 0.2500 0.0000  plane waves:     892
 k-point 33 :  -0.3333 0.2500 0.0000  plane waves:     891
 k-point 34 :  -0.2500 0.2500 0.0000  plane waves:     889
 k-point 35 :   0.3333 0.3333 0.0000  plane waves:     878
 k-point 36 :   0.4167 0.3333 0.0000  plane waves:     893
 k-point 37 :   0.5000 0.3333 0.0000  plane waves:     895
 k-point 38 :  -0.4167 0.3333 0.0000  plane waves:     891
 k-point 39 :  -0.3333 0.3333 0.0000  plane waves:     893
 k-point 40 :   0.4167 0.4167 0.0000  plane waves:     886
 k-point 41 :   0.5000 0.4167 0.0000  plane waves:     899
 k-point 42 :  -0.4167 0.4167 0.0000  plane waves:     896
 k-point 43 :   0.5000 0.5000 0.0000  plane waves:     894
 k-point 44 :   0.2500 0.1667 0.0833  plane waves:     901
 k-point 45 :   0.3333 0.1667 0.0833  plane waves:     893
 k-point 46 :   0.4167 0.1667 0.0833  plane waves:     892
 k-point 47 :   0.5000 0.1667 0.0833  plane waves:     893
 k-point 48 :  -0.4167 0.1667 0.0833  plane waves:     890
 k-point 49 :   0.3333 0.2500 0.0833  plane waves:     891
 k-point 50 :   0.4167 0.2500 0.0833  plane waves:     892
 k-point 51 :   0.5000 0.2500 0.0833  plane waves:     894
 k-point 52 :  -0.4167 0.2500 0.0833  plane waves:     888
 k-point 53 :  -0.3333 0.2500 0.0833  plane waves:     889
 k-point 54 :  -0.2500 0.2500 0.0833  plane waves:     892
 k-point 55 :  -0.1667 0.2500 0.0833  plane waves:     894
 k-point 56 :   0.4167 0.3333 0.0833  plane waves:     893
 k-point 57 :   0.5000 0.3333 0.0833  plane waves:     888
 k-point 58 :  -0.4167 0.3333 0.0833  plane waves:     894
 k-point 59 :  -0.3333 0.3333 0.0833  plane waves:     894
 k-point 60 :  -0.2500 0.3333 0.0833  plane waves:     885
 k-point 61 :   0.5000 0.4167 0.0833  plane waves:     896
 k-point 62 :  -0.4167 0.4167 0.0833  plane waves:     894
 k-point 63 :  -0.3333 0.4167 0.0833  plane waves:     902
 k-point 64 :  -0.4167 0.5000 0.0833  plane waves:     900
 k-point 65 :   0.5000 0.3333 0.1667  plane waves:     899
 k-point 66 :  -0.4167 0.3333 0.1667  plane waves:     897
 k-point 67 :  -0.3333 0.3333 0.1667  plane waves:     890
 k-point 68 :  -0.4167 0.4167 0.1667  plane waves:     891
 k-point 69 :  -0.3333 0.4167 0.1667  plane waves:     898
 k-point 70 :  -0.2500 0.4167 0.1667  plane waves:     898
 k-point 71 :  -0.3333 0.5000 0.1667  plane waves:     896
 k-point 72 :  -0.2500 0.5000 0.2500  plane waves:     892

 maximum and minimum number of plane-waves per node :       911      878

 maximum number of plane-waves:       911
 maximum index in each direction: 
   IXMAX=    7   IYMAX=    6   IZMAX=    6
   IXMIN=   -7   IYMIN=   -7   IZMIN=   -6

 WARNING: aliasing errors must be expected set NGX to  30 to avoid them
 NGY is ok and might be reduce to  28
 NGZ is ok and might be reduce to  26
 aliasing errors are usually negligible using standard VASP settings
 and one can safely disregard these warnings

 serial   3D FFT for wavefunctions
 parallel 3D FFT for charge:
    minimum data exchange during FFTs selected (reduces bandwidth)


 total amount of memory used by VASP on root node    77961. kBytes
========================================================================

   base      :      30000. kBytes
   nonl-proj :      37880. kBytes
   fftplans  :       1051. kBytes
   grid      :       2195. kBytes
   one-center:         62. kBytes
   wavefun   :       6773. kBytes
 
 Broyden mixing: mesh for mixing (old mesh)
   NGX = 13   NGY = 13   NGZ = 13
  (NGX  = 36   NGY  = 36   NGZ  = 36)
  gives a total of   2197 points

 initial charge density was supplied:
 charge density of overlapping atoms calculated
 number of electron      36.0000000 magnetization 
 keeping initial charge density in first step


--------------------------------------------------------------------------------------------------------


 Maximum index for augmentation-charges         1718 (set IRDMAX)


--------------------------------------------------------------------------------------------------------


 First call to EWALD:  gamma=   0.453
 Maximum number of real-space cells 3x 3x 3
 Maximum number of reciprocal cells 3x 3x 3

 FEWALD executed in parallel
    FEWALD:  cpu time    0.00: real time    0.00


----------------------------------------- Iteration    1(   1)  ---------------------------------------


    POTLOK:  cpu time    0.02: real time    0.02
    SETDIJ:  cpu time    0.00: real time    0.00
     EDDAV:  cpu time    1.85: real time    1.86
       DOS:  cpu time    0.00: real time    0.00
    --------------------------------------------
      LOOP:  cpu time    1.88: real time    1.88

 eigenvalue-minimisations  :  3456
 total energy-change (2. order) : 0.2378155E+03  (-0.1421014E+04)
 number of electron      36.0000000 magnetization 
 augmentation part       36.0000000 magnetization 

 Free energy of the ion-electron system (eV)
  ---------------------------------------------------
  alpha Z        PSCENC =       217.66829995
  Ewald energy   TEWEN  =     -2984.28414911
  -1/2 Hartree   DENC   =      -954.80101376
  -exchange  EXHF       =         0.00000000
  -V(xc)+E(xc)   XCENC  =        63.56966385
  PAW double counting   =      3213.75497034    -3299.81915046
  entropy T*S    EENTRO =        -0.00151551
  eigenvalues    EBANDS =       164.01659516
  atomic energy  EATOM  =      3817.71177069
  ---------------------------------------------------
  free energy    TOTEN  =       237.81547114 eV

  energy without entropy =      237.81698665  energy(sigma->0) =      237.81597631


--------------------------------------------------------------------------------------------------------




----------------------------------------- Iteration    1(   2)  ---------------------------------------


     EDDAV:  cpu time    2.03: real time    2.03
       DOS:  cpu time    0.00: real time    0.00
    --------------------------------------------
      LOOP:  cpu time    2.03: real time    2.03

 eigenvalue-minimisations  :  3904
 total energy-change (2. order) :-0.2481965E+03  (-0.2416975E+03)
 number of electron      36.0000000 magnetization 
 augmentation part       36.0000000 magnetization 

 Free energy of the ion-electron system (eV)
  ---------------------------------------------------
  alpha Z        PSCENC =       217.66829995
  Ewald energy   TEWEN  =     -2984.28414911
  -1/2 Hartree   DENC   =      -954.80101376
  -exchange  EXHF       =         0.00000000
  -V(xc)+E(xc)   XCENC  =        63.56966385
  PAW double counting   =      3213.75497034    -3299.81915046
  entropy T*S    EENTRO =        -0.00194468
  eigenvalues    EBANDS =       -84.17948178
  atomic energy  EATOM  =      3817.71177069
  ---------------------------------------------------
  free energy    TOTEN  =       -10.38103498 eV

  energy without entropy =      -10.37909030  energy(sigma->0) =      -10.38038675


--------------------------------------------------------------------------------------------------------




----------------------------------------- Iteration    1(   3)  ---------------------------------------


     EDDAV:  cpu time    2.29: real time    2.29
       DOS:  cpu time    0.00: real time    0.00
    --------------------------------------------
      LOOP:  cpu time    2.29: real time    2.30

 eigenvalue-minimisations  :  4592
 total energy-change (2. order) :-0.1452363E+02  (-0.1419449E+02)
 number of electron      36.0000000 magnetization 
 augmentation part       36.0000000 magnetization 

 Free energy of the ion-electron system (eV)
  ---------------------------------------------------
  alpha Z        PSCENC =       217.66829995
  Ewald energy   TEWEN  =     -2984.28414911
  -1/2 Hartree   DENC   =      -954.80101376
  -exchange  EXHF       =         0.00000000
  -V(xc)+E(xc)   XCENC  =        63.56966385
  PAW double counting   =      3213.75497034    -3299.81915046
  entropy T*S    EENTRO =         0.00244386
  eigenvalues    EBANDS =       -98.70749599
  atomic energy  EATOM  =      3817.71177069
  ---------------------------------------------------
  free energy    TOTEN  =       -24.90466064 eV

  energy without entropy =      -24.90710450  energy(sigma->0) =      -24.90547526


--------------------------------------------------------------------------------------------------------




----------------------------------------- Iteration    1(   4)  ---------------------------------------


     EDDAV:  cpu time    2.67: real time    2.68
       DOS:  cpu time    0.00: real time    0.00
    --------------------------------------------
      LOOP:  cpu time    2.67: real time    2.68

 eigenvalue-minimisations  :  5536
 total energy-change (2. order) :-0.7184475E+00  (-0.7168566E+00)
 number of electron      36.0000000 magnetization 
 augmentation part       36.0000000 magnetization 

 Free energy of the ion-electron system (eV)
  ---------------------------------------------------
  alpha Z        PSCENC =       217.66829995
  Ewald energy   TEWEN  =     -2984.28414911
  -1/2 Hartree   DENC   =      -954.80101376
  -exchange  EXHF       =         0.00000000
  -V(xc)+E(xc)   XCENC  =        63.56966385
  PAW double counting   =      3213.75497034    -3299.81915046
  entropy T*S    EENTRO =         0.00276652
  eigenvalues    EBANDS =       -99.42626611
  atomic energy  EATOM  =      3817.71177069
  ---------------------------------------------------
  free energy    TOTEN  =       -25.62310811 eV

  energy without entropy =      -25.62587462  energy(sigma->0) =      -25.62403028


--------------------------------------------------------------------------------------------------------




----------------------------------------- Iteration    1(   5)  ---------------------------------------


     EDDAV:  cpu time    2.31: real time    2.32
       DOS:  cpu time    0.00: real time    0.00
    CHARGE:  cpu time    0.23: real time    0.23
    MIXING:  cpu time    0.00: real time    0.00
    --------------------------------------------
      LOOP:  cpu time    2.54: real time    2.55

 eigenvalue-minimisations  :  4640
 total energy-change (2. order) :-0.8325495E-02  (-0.8322967E-02)
 number of electron      35.9999914 magnetization 
 augmentation part       11.4527148 magnetization 

 Broyden mixing:
  rms(total) = 0.11707E+01    rms(broyden)= 0.11706E+01
  rms(prec ) = 0.21078E+01
  weight for this iteration     100.00

 Free energy of the ion-electron system (eV)
  ---------------------------------------------------
  alpha Z        PSCENC =       217.66829995
  Ewald energy   TEWEN  =     -2984.28414911
  -1/2 Hartree   DENC   =      -954.80101376
  -exchange  EXHF       =         0.00000000
  -V(xc)+E(xc)   XCENC  =        63.56966385
  PAW double counting   =      3213.75497034    -3299.81915046
  entropy T*S    EENTRO =         0.00277332
  eigenvalues    EBANDS =       -99.43459841
  atomic energy  EATOM  =      3817.71177069
  ---------------------------------------------------
  free energy    TOTEN  =       -25.63143360 eV

  energy without entropy =      -25.63420692  energy(sigma->0) =      -25.63235804


--------------------------------------------------------------------------------------------------------




----------------------------------------- Iteration    1(   6)  ---------------------------------------


    POTLOK:  cpu time    0.02: real time    0.02
    SETDIJ:  cpu time    0.00: real time    0.00
    EDDIAG:  cpu time    0.47: real time    0.47
  RMM-DIIS:  cpu time    1.78: real time    1.79
    ORTHCH:  cpu time    0.02: real time    0.02
       DOS:  cpu time    0.00: real time    0.00
    CHARGE:  cpu time    0.23: real time    0.23
    MIXING:  cpu time    0.00: real time    0.00
    --------------------------------------------
      LOOP:  cpu time    2.52: real time    2.53

 eigenvalue-minimisations  :  4076
 total energy-change (2. order) : 0.6675551E+00  (-0.5481160E+00)
 number of electron      35.9999908 magnetization 
 augmentation part       11.3216546 magnetization 

 Broyden mixing:
  rms(total) = 0.89034E+00    rms(broyden)= 0.89031E+00
  rms(prec ) = 0.19219E+01
  weight for this iteration     100.00

 eigenvalues of (default mixing * dielectric matrix)
  average eigenvalue GAMMA=   0.9338
  0.9338

 Free energy of the ion-electron system (eV)
  ---------------------------------------------------
  alpha Z        PSCENC =       217.66829995
  Ewald energy   TEWEN  =     -2984.28414911
  -1/2 Hartree   DENC   =      -919.99621881
  -exchange  EXHF       =         0.00000000
  -V(xc)+E(xc)   XCENC  =        62.32988190
  PAW double counting   =      3506.61761794    -3590.83473556
  entropy T*S    EENTRO =         0.00258973
  eigenvalues    EBANDS =      -134.17893519
  atomic energy  EATOM  =      3817.71177069
  ---------------------------------------------------
  free energy    TOTEN  =       -24.96387848 eV

  energy without entropy =      -24.96646820  energy(sigma->0) =      -24.96474172


--------------------------------------------------------------------------------------------------------




----------------------------------------- Iteration    1(   7)  ---------------------------------------


    POTLOK:  cpu time    0.01: real time    0.01
    SETDIJ:  cpu time    0.00: real time    0.00
    EDDIAG:  cpu time    0.46: real time    0.46
  RMM-DIIS:  cpu time    1.68: real time    1.68
    ORTHCH:  cpu time    0.02: real time    0.03
       DOS:  cpu time    0.00: real time    0.00
    CHARGE:  cpu time    0.23: real time    0.23
    MIXING:  cpu time    0.00: real time    0.00
    --------------------------------------------
      LOOP:  cpu time    2.40: real time    2.41

 eigenvalue-minimisations  :  3614
 total energy-change (2. order) : 0.4501047E+00  (-0.1578289E+00)
 number of electron      35.9999909 magnetization 
 augmentation part       11.7793980 magnetization 

 Broyden mixing:
  rms(total) = 0.37323E+00    rms(broyden)= 0.37320E+00
  rms(prec ) = 0.86295E+00
  weight for this iteration     100.00

 eigenvalues of (default mixing * dielectric matrix)
  average eigenvalue GAMMA=   0.9776
  1.5303  0.4249

 Free energy of the ion-electron system (eV)
  ---------------------------------------------------
  alpha Z        PSCENC =       217.66829995
  Ewald energy   TEWEN  =     -2984.28414911
  -1/2 Hartree   DENC   =      -920.66577418
  -exchange  EXHF       =         0.00000000
  -V(xc)+E(xc)   XCENC  =        62.48323928
  PAW double counting   =      3618.45961162    -3704.09839646
  entropy T*S    EENTRO =         0.00304155
  eigenvalues    EBANDS =      -131.79141708
  atomic energy  EATOM  =      3817.71177069
  ---------------------------------------------------
  free energy    TOTEN  =       -24.51377375 eV

  energy without entropy =      -24.51681530  energy(sigma->0) =      -24.51478760


--------------------------------------------------------------------------------------------------------




----------------------------------------- Iteration    1(   8)  ---------------------------------------


    POTLOK:  cpu time    0.01: real time    0.01
    SETDIJ:  cpu time    0.00: real time    0.00
    EDDIAG:  cpu time    0.46: real time    0.46
  RMM-DIIS:  cpu time    1.74: real time    1.74
    ORTHCH:  cpu time    0.03: real time    0.03
       DOS:  cpu time    0.00: real time    0.00
    CHARGE:  cpu time    0.23: real time    0.23
    MIXING:  cpu time    0.00: real time    0.00
    --------------------------------------------
      LOOP:  cpu time    2.48: real time    2.48

 eigenvalue-minimisations  :  3962
 total energy-change (2. order) : 0.1815260E+00  (-0.2254068E-01)
 number of electron      35.9999909 magnetization 
 augmentation part       11.6160954 magnetization 

 Broyden mixing:
  rms(total) = 0.16235E+00    rms(broyden)= 0.16234E+00
  rms(prec ) = 0.28511E+00
  weight for this iteration     100.00

 eigenvalues of (default mixing * dielectric matrix)
  average eigenvalue GAMMA=   1.1495
  1.9609  1.1082  0.3793

 Free energy of the ion-electron system (eV)
  ---------------------------------------------------
  alpha Z        PSCENC =       217.66829995
  Ewald energy   TEWEN  =     -2984.28414911
  -1/2 Hartree   DENC   =      -915.45425549
  -exchange  EXHF       =         0.00000000
  -V(xc)+E(xc)   XCENC  =        62.42181306
  PAW double counting   =      3809.17039909    -3896.93701392
  entropy T*S    EENTRO =         0.00809294
  eigenvalues    EBANDS =      -134.63720498
  atomic energy  EATOM  =      3817.71177069
  ---------------------------------------------------
  free energy    TOTEN  =       -24.33224778 eV

  energy without entropy =      -24.34034072  energy(sigma->0) =      -24.33494543


--------------------------------------------------------------------------------------------------------




----------------------------------------- Iteration    1(   9)  ---------------------------------------


    POTLOK:  cpu time    0.01: real time    0.01
    SETDIJ:  cpu time    0.00: real time    0.00
    EDDIAG:  cpu time    0.47: real time    0.47
  RMM-DIIS:  cpu time    1.80: real time    1.80
    ORTHCH:  cpu time    0.03: real time    0.03
       DOS:  cpu time    0.00: real time    0.00
    CHARGE:  cpu time    0.22: real time    0.23
    MIXING:  cpu time    0.00: real time    0.00
    --------------------------------------------
      LOOP:  cpu time    2.54: real time    2.54

 eigenvalue-minimisations  :  4107
 total energy-change (2. order) : 0.2055896E-01  (-0.6126595E-02)
 number of electron      35.9999909 magnetization 
 augmentation part       11.6244948 magnetization 

 Broyden mixing:
  rms(total) = 0.46590E-01    rms(broyden)= 0.46579E-01
  rms(prec ) = 0.70264E-01
  weight for this iteration     100.00

 eigenvalues of (default mixing * dielectric matrix)
  average eigenvalue GAMMA=   1.2601
  2.4349  1.3556  0.3793  0.8707

 Free energy of the ion-electron system (eV)
  ---------------------------------------------------
  alpha Z        PSCENC =       217.66829995
  Ewald energy   TEWEN  =     -2984.28414911
  -1/2 Hartree   DENC   =      -913.44606744
  -exchange  EXHF       =         0.00000000
  -V(xc)+E(xc)   XCENC  =        62.45643001
  PAW double counting   =      3929.42458184    -4017.71995245
  entropy T*S    EENTRO =         0.00784728
  eigenvalues    EBANDS =      -136.13044958
  atomic energy  EATOM  =      3817.71177069
  ---------------------------------------------------
  free energy    TOTEN  =       -24.31168882 eV

  energy without entropy =      -24.31953610  energy(sigma->0) =      -24.31430458


--------------------------------------------------------------------------------------------------------




----------------------------------------- Iteration    1(  10)  ---------------------------------------


    POTLOK:  cpu time    0.01: real time    0.01
    SETDIJ:  cpu time    0.00: real time    0.00
    EDDIAG:  cpu time    0.47: real time    0.47
  RMM-DIIS:  cpu time    1.93: real time    1.94
    ORTHCH:  cpu time    0.03: real time    0.03
       DOS:  cpu time    0.00: real time    0.00
    CHARGE:  cpu time    0.23: real time    0.23
    MIXING:  cpu time    0.00: real time    0.00
    --------------------------------------------
      LOOP:  cpu time    2.68: real time    2.69

 eigenvalue-minimisations  :  4357
 total energy-change (2. order) : 0.8807610E-03  (-0.9346551E-03)
 number of electron      35.9999909 magnetization 
 augmentation part       11.6199321 magnetization 

 Broyden mixing:
  rms(total) = 0.23905E-01    rms(broyden)= 0.23894E-01
  rms(prec ) = 0.35541E-01
  weight for this iteration     100.00

 eigenvalues of (default mixing * dielectric matrix)
  average eigenvalue GAMMA=   1.3153
  2.2622  2.0757  0.3793  1.0354  0.8241

 Free energy of the ion-electron system (eV)
  ---------------------------------------------------
  alpha Z        PSCENC =       217.66829995
  Ewald energy   TEWEN  =     -2984.28414911
  -1/2 Hartree   DENC   =      -913.46016581
  -exchange  EXHF       =         0.00000000
  -V(xc)+E(xc)   XCENC  =        62.48072294
  PAW double counting   =      3950.66800345    -4039.24032013
  entropy T*S    EENTRO =         0.00771724
  eigenvalues    EBANDS =      -135.86268727
  atomic energy  EATOM  =      3817.71177069
  ---------------------------------------------------
  free energy    TOTEN  =       -24.31080806 eV

  energy without entropy =      -24.31852530  energy(sigma->0) =      -24.31338047


--------------------------------------------------------------------------------------------------------




----------------------------------------- Iteration    1(  11)  ---------------------------------------


    POTLOK:  cpu time    0.02: real time    0.02
    SETDIJ:  cpu time    0.00: real time    0.00
    EDDIAG:  cpu time    0.48: real time    0.48
  RMM-DIIS:  cpu time    1.78: real time    1.79
    ORTHCH:  cpu time    0.02: real time    0.02
       DOS:  cpu time    0.00: real time    0.00
    CHARGE:  cpu time    0.23: real time    0.23
    MIXING:  cpu time    0.00: real time    0.00
    --------------------------------------------
      LOOP:  cpu time    2.54: real time    2.55

 eigenvalue-minimisations  :  4009
 total energy-change (2. order) :-0.7825918E-05  (-0.1914620E-03)
 number of electron      35.9999910 magnetization 
 augmentation part       11.6188507 magnetization 

 Broyden mixing:
  rms(total) = 0.38110E-02    rms(broyden)= 0.37907E-02
  rms(prec ) = 0.72067E-02
  weight for this iteration     100.00

 eigenvalues of (default mixing * dielectric matrix)
  average eigenvalue GAMMA=   1.3795
  2.6961  2.2199  0.3794  1.1672  0.9679  0.8465

 Free energy of the ion-electron system (eV)
  ---------------------------------------------------
  alpha Z        PSCENC =       217.66829995
  Ewald energy   TEWEN  =     -2984.28414911
  -1/2 Hartree   DENC   =      -913.64069374
  -exchange  EXHF       =         0.00000000
  -V(xc)+E(xc)   XCENC  =        62.49108262
  PAW double counting   =      3947.38703739    -4035.77072897
  entropy T*S    EENTRO =         0.00765024
  eigenvalues    EBANDS =      -135.88108494
  atomic energy  EATOM  =      3817.71177069
  ---------------------------------------------------
  free energy    TOTEN  =       -24.31081588 eV

  energy without entropy =      -24.31846612  energy(sigma->0) =      -24.31336596


--------------------------------------------------------------------------------------------------------




----------------------------------------- Iteration    1(  12)  ---------------------------------------


    POTLOK:  cpu time    0.01: real time    0.01
    SETDIJ:  cpu time    0.00: real time    0.00
    EDDIAG:  cpu time    0.46: real time    0.46
  RMM-DIIS:  cpu time    1.31: real time    1.32
    ORTHCH:  cpu time    0.02: real time    0.02
       DOS:  cpu time    0.00: real time    0.00
    --------------------------------------------
      LOOP:  cpu time    1.81: real time    1.82

 eigenvalue-minimisations  :  2716
 total energy-change (2. order) :-0.2814338E-04  (-0.3987989E-04)
 number of electron      35.9999910 magnetization 
 augmentation part       11.6188507 magnetization 

 Free energy of the ion-electron system (eV)
  ---------------------------------------------------
  alpha Z        PSCENC =       217.66829995
[...]
      4     -23.0208      2.00000
      5      -0.0794      2.00000
      6       0.5037      2.00000
      7       0.5666      2.00000
      8       0.6236      2.00000
      9       0.6666      2.00000
     10       1.4451      2.00000
     11       2.0252      2.00000
     12       4.2825      2.00000
     13       4.7438      2.00000
     14       5.7135      2.00000
     15       6.2810      2.00000
     16       6.2887      2.00000
     17       6.6007      2.00000
     18       7.5244      2.00002
     19       8.6920     -0.00256
     20       9.2466     -0.00000
     21       9.4666     -0.00000
     22       9.8883     -0.00000
     23      10.1981     -0.00000
     24      13.1944     -0.00000

 k-point  64 :      -0.4167    0.5000    0.0833
  band No.  band energies     occupation 
      1     -46.9044      2.00000
      2     -23.0410      2.00000
      3     -23.0230      2.00000
      4     -23.0214      2.00000
      5      -0.1213      2.00000
      6       0.5049      2.00000
      7       0.5864      2.00000
      8       0.6060      2.00000
      9       0.6561      2.00000
     10       1.4279      2.00000
     11       1.8751      2.00000
     12       5.0989      2.00000
     13       5.1723      2.00000
     14       5.5637      2.00000
     15       5.7333      2.00000
     16       6.4663      2.00000
     17       6.7791      2.00000
     18       7.3090      2.00000
     19       8.6059     -0.01369
     20       8.6539     -0.00569
     21       9.5918     -0.00000
     22       9.6310     -0.00000
     23      10.3486     -0.00000
     24      12.4279     -0.00000

 k-point  65 :       0.5000    0.3333    0.1667
  band No.  band energies     occupation 
      1     -46.9048      2.00000
      2     -23.0346      2.00000
      3     -23.0253      2.00000
      4     -23.0205      2.00000
      5      -0.2344      2.00000
      6       0.4837      2.00000
      7       0.5613      2.00000
      8       0.6126      2.00000
      9       0.6510      2.00000
     10       0.8377      2.00000
     11       2.6468      2.00000
     12       4.1749      2.00000
     13       4.6995      2.00000
     14       5.8209      2.00000
     15       5.9808      2.00000
     16       6.3822      2.00000
     17       6.8678      2.00000
     18       7.3325      2.00000
     19       9.0220     -0.00000
     20       9.2137     -0.00000
     21      10.1323     -0.00000
     22      10.5378     -0.00000
     23      11.0263     -0.00000
     24      13.0410     -0.00000

 k-point  66 :      -0.4167    0.3333    0.1667
  band No.  band energies     occupation 
      1     -46.9046      2.00000
      2     -23.0344      2.00000
      3     -23.0274      2.00000
      4     -23.0205      2.00000
      5      -0.1085      2.00000
      6       0.5031      2.00000
      7       0.5568      2.00000
      8       0.6314      2.00000
      9       0.6586      2.00000
     10       1.1260      2.00000
     11       2.3405      2.00000
     12       4.0013      2.00000
     13       4.6413      2.00000
     14       5.8355      2.00000
     15       6.0178      2.00000
     16       6.3803      2.00000
     17       6.8540      2.00000
     18       7.5495      2.00005
     19       8.9099     -0.00001
     20       9.0998     -0.00000
     21       9.6955     -0.00000
     22      10.3465     -0.00000
     23      10.7067     -0.00000
     24      13.2270     -0.00000

 k-point  67 :      -0.3333    0.3333    0.1667
  band No.  band energies     occupation 
      1     -46.9045      2.00000
      2     -23.0341      2.00000
      3     -23.0283      2.00000
      4     -23.0203      2.00000
      5      -0.0722      2.00000
      6       0.5081      2.00000
      7       0.5544      2.00000
      8       0.6384      2.00000
      9       0.6602      2.00000
     10       1.3171      2.00000
     11       2.1541      2.00000
     12       3.9585      2.00000
     13       4.6307      2.00000
     14       5.8352      2.00000
     15       6.0115      2.00000
     16       6.3692      2.00000
     17       6.8399      2.00000
     18       7.6401      2.00060
     19       8.8872     -0.00001
     20       9.0877     -0.00000
     21       9.5141     -0.00000
     22      10.3300     -0.00000
     23      10.4985     -0.00000
     24      13.2950     -0.00000

 k-point  68 :      -0.4167    0.4167    0.1667
  band No.  band energies     occupation 
      1     -46.9045      2.00000
      2     -23.0364      2.00000
      3     -23.0261      2.00000
      4     -23.0209      2.00000
      5      -0.1023      2.00000
      6       0.4940      2.00000
      7       0.5661      2.00000
      8       0.6328      2.00000
      9       0.6548      2.00000
     10       1.2132      2.00000
     11       2.1867      2.00000
     12       4.3390      2.00000
     13       4.9724      2.00000
     14       5.7536      2.00000
     15       5.9480      2.00000
     16       6.3269      2.00000
     17       6.6426      2.00000
     18       7.5334      2.00003
     19       8.8570     -0.00003
     20       8.9486     -0.00000
     21       9.6474     -0.00000
     22      10.0055     -0.00000
     23      10.3733     -0.00000
     24      13.2937     -0.00000

 k-point  69 :      -0.3333    0.4167    0.1667
  band No.  band energies     occupation 
      1     -46.9044      2.00000
      2     -23.0347      2.00000
      3     -23.0288      2.00000
      4     -23.0209      2.00000
      5      -0.0711      2.00000
      6       0.4932      2.00000
      7       0.5614      2.00000
      8       0.6410      2.00000
      9       0.6609      2.00000
     10       1.4330      2.00000
     11       2.0402      2.00000
     12       4.3134      2.00000
     13       4.8125      2.00000
     14       5.6904      2.00000
     15       6.0582      2.00000
     16       6.2889      2.00000
     17       6.5146      2.00000
     18       7.6982      2.00240
     19       8.8785     -0.00002
     20       9.1566     -0.00000
     21       9.4164     -0.00000
     22       9.8208     -0.00000
     23      10.1617     -0.00000
     24      13.7699      0.00000

 k-point  70 :      -0.2500    0.4167    0.1667
  band No.  band energies     occupation 
      1     -46.9045      2.00000
      2     -23.0332      2.00000
      3     -23.0301      2.00000
      4     -23.0207      2.00000
      5      -0.0723      2.00000
      6       0.4975      2.00000
      7       0.5573      2.00000
      8       0.6404      2.00000
      9       0.6625      2.00000
     10       1.3703      2.00000
     11       2.1361      2.00000
     12       4.1271      2.00000
     13       4.7011      2.00000
     14       5.7488      2.00000
     15       6.1106      2.00000
     16       6.4234      2.00000
     17       6.4964      2.00000
     18       7.6656      2.00113
     19       8.8603     -0.00003
     20       9.1169     -0.00000
     21       9.5901     -0.00000
     22       9.9625     -0.00000
     23      10.2375     -0.00000
     24      13.7525      0.00000

 k-point  71 :      -0.3333    0.5000    0.1667
  band No.  band energies     occupation 
      1     -46.9044      2.00000
      2     -23.0371      2.00000
      3     -23.0266      2.00000
      4     -23.0213      2.00000
      5      -0.0828      2.00000
      6       0.4921      2.00000
      7       0.5696      2.00000
      8       0.6318      2.00000
      9       0.6617      2.00000
     10       1.4894      2.00000
     11       1.9300      2.00000
     12       4.7303      2.00000
     13       4.8609      2.00000
     14       5.6235      2.00000
     15       5.8982      2.00000
     16       6.2651      2.00000
     17       6.5515      2.00000
     18       7.6794      2.00157
     19       8.8379     -0.00006
     20       9.0216     -0.00000
     21       9.4262     -0.00000
     22       9.5949     -0.00000
     23      10.1625     -0.00000
     24      13.4649     -0.00000

 k-point  72 :      -0.2500    0.5000    0.2500
  band No.  band energies     occupation 
      1     -46.9044      2.00000
      2     -23.0333      2.00000
      3     -23.0302      2.00000
      4     -23.0211      2.00000
      5      -0.0628      2.00000
      6       0.4862      2.00000
      7       0.5608      2.00000
      8       0.6490      2.00000
      9       0.6595      2.00000
     10       1.5230      2.00000
     11       1.9618      2.00000
     12       4.5724      2.00000
     13       4.7163      2.00000
     14       5.6451      2.00000
     15       5.9967      2.00000
     16       6.1605      2.00000
     17       6.4624      2.00000
     18       7.8082      2.01921
     19       9.0449     -0.00000
     20       9.2449     -0.00000
     21       9.3054     -0.00000
     22       9.5005     -0.00000
     23      10.0502     -0.00000
     24      14.3195      0.00000


--------------------------------------------------------------------------------------------------------


 soft charge-density along one line, spin component           1
         0         1         2         3         4         5         6         7         8         9
 total charge-density along one line
 
 pseudopotential strength for first ion, spin component:           1
  5.978   0.000 -21.159   0.000  -0.000   0.000  -0.000   0.000  -0.000   0.000   0.000   0.000   0.000   0.000   0.000   0.000
-21.159   0.000   9.985   0.000  -0.000   0.000  -0.000   0.000  -0.000   0.000   0.000   0.000   0.000   0.000   0.000   0.000
 -0.000   0.000  -0.000   0.000 -10.238   0.000   0.000   0.000   0.000   0.000   6.631   0.000  -0.000   0.000  -0.000   0.000
 -0.000   0.000  -0.000   0.000   0.000   0.000 -10.238   0.000   0.000   0.000  -0.000   0.000   6.631   0.000  -0.000   0.000
 -0.000   0.000  -0.000   0.000   0.000   0.000   0.000   0.000 -10.238   0.000  -0.000   0.000  -0.000   0.000   6.631   0.000
  0.000   0.000   0.000   0.000   6.631   0.000  -0.000   0.000  -0.000   0.000   7.539   0.000   0.000   0.000   0.000   0.000
  0.000   0.000   0.000   0.000  -0.000   0.000   6.631   0.000  -0.000   0.000   0.000   0.000   7.539   0.000   0.000   0.000
  0.000   0.000   0.000   0.000  -0.000   0.000  -0.000   0.000   6.631   0.000   0.000   0.000   0.000   0.000   7.539   0.000
  0.000   0.000   0.000   0.000   0.000   0.000  -0.004   0.000   0.000   0.000  -0.000   0.000  -0.001   0.000  -0.000   0.000
  0.000   0.000   0.000   0.000   0.000   0.000   0.000   0.000  -0.004   0.000  -0.000   0.000  -0.000   0.000  -0.001   0.000
 -0.000   0.000  -0.000   0.000   0.000   0.000  -0.000   0.000   0.000   0.000  -0.000   0.000   0.000   0.000  -0.000   0.000
  0.000   0.000   0.000   0.000  -0.004   0.000   0.000   0.000   0.000   0.000  -0.001   0.000  -0.000   0.000  -0.000   0.000
  0.000   0.000   0.000   0.000   0.000   0.000  -0.000   0.000  -0.000   0.000  -0.000   0.000   0.000   0.000   0.000   0.000
  0.000   0.000   0.000   0.000   0.000   0.000  -0.005   0.000   0.000   0.000  -0.000   0.000  -0.001   0.000  -0.000   0.000
  0.000   0.000   0.000   0.000   0.000   0.000   0.000   0.000  -0.005   0.000  -0.000   0.000  -0.000   0.000  -0.001   0.000
 -0.000   0.000  -0.000   0.000   0.000   0.000  -0.000   0.000   0.000   0.000  -0.000   0.000   0.000   0.000  -0.000   0.000
  0.000   0.000   0.000   0.000  -0.005   0.000   0.000   0.000   0.000   0.000  -0.001   0.000  -0.000   0.000  -0.000   0.000
  0.000   0.000   0.000   0.000   0.000   0.000  -0.000   0.000  -0.000   0.000  -0.000   0.000   0.000   0.000   0.000   0.000
 total augmentation occupancy for first ion, spin component:           1
  1.998  -0.034   0.000   0.000   0.000   0.000   0.000   0.000   0.000  -0.000  -0.000   0.000   0.000   0.000   0.000   0.000
 -0.034   1.221   0.000   0.000   0.000  -0.000   0.000   0.000  -0.000  -0.000  -0.000  -0.000   0.000   0.000   0.000   0.000
  0.000   0.000   1.999  -0.000  -0.000  -0.029  -0.000   0.000   0.000   0.000  -0.000  -0.029   0.000   0.000   0.000   0.000
  0.000   0.000  -0.000   1.999   0.000   0.000  -0.029   0.000  -0.029   0.000   0.000   0.000  -0.000   0.008   0.000   0.000
  0.000   0.000  -0.000   0.000   1.999   0.000   0.000  -0.029   0.000  -0.029  -0.000   0.000   0.000  -0.000   0.008   0.000
  0.000  -0.000  -0.029   0.000  -0.000   0.062  -0.000   0.000   0.000   0.000   0.000   0.077  -0.000   0.000   0.000   0.000
  0.000   0.000   0.000  -0.029   0.000   0.000   0.062   0.000   0.077  -0.000   0.000   0.000  -0.000  -0.011   0.000   0.000
  0.000   0.000   0.000  -0.000  -0.029   0.000  -0.000   0.062   0.000   0.077   0.000  -0.000  -0.000   0.000  -0.011  -0.000
  0.000   0.000   0.000  -0.029  -0.000   0.000   0.077   0.000   2.800   0.000   0.000   0.000  -0.000  -1.058   0.000  -0.000
 -0.000   0.000   0.000  -0.000  -0.029   0.000  -0.000   0.077   0.000   2.800   0.000   0.000   0.000   0.000  -1.058   0.000
 -0.000  -0.000   0.000   0.000  -0.000   0.000   0.000  -0.000   0.000   0.000   1.770   0.000   0.000   0.000  -0.000  -0.730
  0.000   0.000  -0.029  -0.000   0.000   0.077   0.000  -0.000   0.000   0.000  -0.000   2.800   0.000   0.000   0.000  -0.000
  0.000   0.000  -0.000  -0.000  -0.000  -0.000  -0.000   0.000   0.000   0.000   0.000  -0.000   1.770   0.000  -0.000   0.000
  0.000   0.000  -0.000   0.008  -0.000   0.000  -0.011   0.000  -1.058   0.000   0.000   0.000  -0.000   0.429   0.000   0.000
  0.000   0.000   0.000   0.000   0.008  -0.000   0.000  -0.011   0.000  -1.058   0.000   0.000   0.000   0.000   0.429   0.000
  0.000   0.000  -0.000  -0.000  -0.000  -0.000   0.000   0.000  -0.000   0.000  -0.730  -0.000   0.000   0.000  -0.000   0.328
  0.000   0.000   0.008   0.000   0.000  -0.011   0.000   0.000   0.000   0.000   0.000  -1.058   0.000   0.000   0.000  -0.000
 -0.000   0.000  -0.000  -0.000  -0.000   0.000  -0.000  -0.000  -0.000   0.000   0.000   0.000  -0.730  -0.000  -0.000   0.000


------------------------ aborting loop because EDIFF is reached ----------------------------------------


    CHARGE:  cpu time    0.22: real time    0.22
    FORLOC:  cpu time    0.00: real time    0.00
    FORNL :  cpu time    0.26: real time    0.27
    STRESS:  cpu time    0.79: real time    0.79
    FORCOR:  cpu time    0.01: real time    0.01
    FORHAR:  cpu time    0.00: real time    0.00
    MIXING:  cpu time    0.00: real time    0.00

  FORCE on cell =-STRESS in cart. coord.  units (eV):
  Direction    XX          YY          ZZ          XY          YZ          ZX
  --------------------------------------------------------------------------------------
  Alpha Z   216.34460   216.34460   216.34460
  Ewald    -992.74158  -992.74158  -992.74158     0.00000    -0.00000     0.00000
  Hartree   305.39269   305.39269   305.39269     0.00000     0.00000     0.00000
  E(xc)    -180.97645  -180.97645  -180.97645    -0.00010    -0.00010    -0.00010
  Local     133.37973   133.37973   133.37973     0.00216     0.00216     0.00216
  n-local   -25.79762   -29.16746   -22.79115    -0.71965     1.12290    -0.78608
  augment   109.58116   109.58116   109.58116    -0.00188    -0.00188    -0.00188
  Kinetic   437.18600   436.01566   431.03264     1.26144    -2.91398     2.65356
  Fock        0.00000     0.00000     0.00000     0.00000     0.00000     0.00000
  -------------------------------------------------------------------------------------
  Total      -0.19382    -0.19382    -0.19382     0.00000     0.00000     0.00000
  in kB      -5.13575    -5.13575    -5.13575     0.00000     0.00000     0.00000
  external pressure =       -5.14 kB  Pullay stress =        0.00 kB


 VOLUME and BASIS-vectors are now :
 -----------------------------------------------------------------------------
  energy-cutoff  :      350.00
  volume of cell :       60.46
      direct lattice vectors                 reciprocal lattice vectors
     0.000000000  3.115236832  3.115236832    -0.160501441  0.160501441  0.160501441
     3.115236832 -0.000000000  3.115236832     0.160501441 -0.160501441  0.160501441
     3.115236832  3.115236832  0.000000000     0.160501441  0.160501441 -0.160501441

  length of vectors
     4.405610178  4.405610178  4.405610178     0.277996650  0.277996650  0.277996650


 FORCES acting on ions
    electron-ion (+dipol)            ewald-force                    non-local-force                 convergence-correction
 -----------------------------------------------------------------------------------------------
   -.957E-05 -.957E-05 -.957E-05   -.475E-14 0.774E-14 -.327E-13   -.607E-17 -.954E-17 -.139E-16   0.822E-06 0.822E-06 0.822E-06
   -.370E-05 -.370E-05 -.370E-05   -.875E-14 0.214E-14 -.509E-14   -.139E-16 0.416E-16 0.347E-16   -.449E-06 -.449E-06 -.449E-06
   -.726E-05 -.726E-05 -.726E-05   -.216E-14 -.242E-15 -.317E-14   0.184E-17 0.249E-17 0.260E-17   -.406E-07 -.406E-07 -.406E-07
   -.902E-05 -.902E-05 -.902E-05   0.151E-13 -.970E-14 0.417E-13   0.000E+00 -.694E-17 -.514E-17   -.150E-06 -.150E-06 -.150E-06
 -----------------------------------------------------------------------------------------------
   -.296E-04 -.296E-04 -.296E-04   -.553E-15 -.647E-16 0.697E-15   -.181E-16 0.276E-16 0.183E-16   0.183E-06 0.183E-06 0.183E-06
 
 
 POSITION                                       TOTAL-FORCE (eV/Angst)
 -----------------------------------------------------------------------------------
     -0.00000      0.00000      0.00000         0.000000      0.000000      0.000000
      1.55762      1.55762      1.55762         0.000000      0.000000      0.000000
      3.11524      3.11524      3.11524        -0.000000      0.000000     -0.000000
      4.67286      4.67286      4.67286        -0.000000     -0.000000     -0.000000
 -----------------------------------------------------------------------------------
    total drift:                               -0.000029     -0.000029     -0.000029


--------------------------------------------------------------------------------------------------------



  FREE ENERGIE OF THE ION-ELECTRON SYSTEM (eV)
  ---------------------------------------------------
  free  energy   TOTEN  =       -24.31252555 eV

  energy  without entropy=      -24.31546951  energy(sigma->0) =      -24.31350687
 
 d Force = 0.0000000E+00[ 0.000E+00, 0.000E+00]  d Energy = 0.1914106E-03-0.191E-03
 d Force = 0.0000000E+00[ 0.000E+00, 0.000E+00]  d Ewald  = 0.7916156E+00-0.792E+00


--------------------------------------------------------------------------------------------------------


    POTLOK:  cpu time    0.02: real time    0.02


--------------------------------------------------------------------------------------------------------




--------------------------------------------------------------------------------------------------------


  
 reached required accuracy - stopping structural energy minimisation
     LOOP+:  cpu time    7.91: real time    7.92
    4ORBIT:  cpu time    0.00: real time    0.00

 total amount of memory used by VASP on root node    77961. kBytes
========================================================================

   base      :      30000. kBytes
   nonl-proj :      37880. kBytes
   fftplans  :       1051. kBytes
   grid      :       2195. kBytes
   one-center:         62. kBytes
   wavefun   :       6773. kBytes
 
  
  
 General timing and accounting informations for this job:
 ========================================================
  
                  Total CPU time used (sec):       53.363
                            User time (sec):       53.188
                          System time (sec):        0.175
                         Elapsed time (sec):       54.063
  
                   Maximum memory used (kb):      118564.
                   Average memory used (kb):           0.
  
                          Minor page faults:        36166
                          Major page faults:            0
                 Voluntary context switches:          910
