<?xml version="1.0" encoding="ISO-8859-1"?>
<modeling>
 <generator>
  <i name="program" type="string">vasp </i>
  <i name="version" type="string">5.4.4  </i>
  <i name="subversion" type="string">18Apr17 (build Mar 28 2018 15:56:00) complex                          parallel </i>
  <i name="platform" type="string">IFC17_CrayMPICH </i>
  <i name="date" type="string">2018 04 25 </i>
  <i name="time" type="string">13:01:45 </i>
 </generator>
 <incar>
  <i type="string" name="PREC">accurate</i>
  <i type="string" name="ALGO"> Fast</i>
  <i type="int" name="ISPIN">     2</i>
  <i type="int" name="ICHARG">     1</i>
  <i type="int" name="NELM">   100</i>
  <i type="int" name="IBRION">     2</i>
  <i name="EDIFF">      0.00050000</i>
  <i type="int" name="NSW">    99</i>
  <i type="int" name="ISIF">     3</i>
  <i name="ENCUT">    520.00000000</i>
  <v name="MAGMOM">      0.60000000      0.60000000      0.60000000      0.60000000      0.60000000      0.60000000      0.60000000      0.60000000      0.60000000      0.60000000</v>
  <i type="string" name="LREAL"> Auto</i>
  <i type="int" name="ISMEAR">     0</i>
  <i name="SIGMA">      0.05000000</i>
  <i type="logical" name="LWAVE"> F  </i>
  <i type="int" name="LORBIT">    11</i>
  <v type="int" name="KPOINT_BSE">    -1     0     0     0</v>
  <i type="int" name="NELM">   100</i>
 </incar>
 <structure name="primitive_cell" >
  <crystal>
   <varray name="basis" >
    <v>       4.54277600       0.00000000       0.00000000 </v>
    <v>       0.00000000       4.54277600       0.00000000 </v>
    <v>       0.00000000       0.00000000       4.54277600 </v>
   </varray>
   <i name="volume">     93.74842238 </i>
   <varray name="rec_basis" >
    <v>       0.22012972       0.00000000       0.00000000 </v>
    <v>       0.00000000       0.22012972       0.00000000 </v>
    <v>       0.00000000       0.00000000       0.22012972 </v>
   </varray>
  </crystal>
  <varray name="positions" >
   <v>       0.00000000       0.00000000      -0.50000000 </v>
   <v>      -0.25000000      -0.25000000       0.25000000 </v>
   <v>       0.25000000      -0.25000000      -0.25000000 </v>
   <v>      -0.25000000       0.25000000      -0.25000000 </v>
   <v>       0.25000000       0.25000000       0.25000000 </v>
   <v>      -0.50000000       0.00000000      -0.50000000 </v>
   <v>       0.00000000      -0.50000000      -0.50000000 </v>
   <v>       0.00000000      -0.50000000       0.00000000 </v>
   <v>      -0.50000000       0.00000000       0.00000000 </v>
   <v>      -0.50000000      -0.50000000       0.00000000 </v>
  </varray>
 </structure>
 <varray name="primitive_index" >
  <v type="int" >        1 </v>
  <v type="int" >        7 </v>
  <v type="int" >        8 </v>
  <v type="int" >        9 </v>
  <v type="int" >       10 </v>
  <v type="int" >        4 </v>
  <v type="int" >        6 </v>
  <v type="int" >        2 </v>
  <v type="int" >        3 </v>
  <v type="int" >        5 </v>
 </varray>
 <kpoints>
  <generation param="Gamma">
   <v type="int" name="divisions">       5        5        5 </v>
   <v name="usershift">      0.00000000       0.00000000       0.00000000 </v>
   <v name="genvec1">      0.20000000       0.00000000       0.00000000 </v>
   <v name="genvec2">      0.00000000       0.20000000       0.00000000 </v>
   <v name="genvec3">      0.00000000       0.00000000       0.20000000 </v>
   <v name="shift">      0.00000000       0.00000000       0.00000000 </v>
  </generation>
  <varray name="kpointlist" >
   <v>       0.00000000       0.00000000       0.00000000 </v>
   <v>       0.20000000       0.00000000       0.00000000 </v>
   <v>       0.40000000       0.00000000       0.00000000 </v>
   <v>       0.20000000       0.20000000       0.00000000 </v>
   <v>       0.40000000       0.20000000       0.00000000 </v>
   <v>       0.40000000       0.40000000       0.00000000 </v>
   <v>       0.20000000       0.20000000       0.20000000 </v>
   <v>       0.40000000       0.20000000       0.20000000 </v>
   <v>       0.40000000       0.40000000       0.20000000 </v>
   <v>       0.40000000       0.40000000       0.40000000 </v>
  </varray>
  <varray name="weights" >
   <v>       0.00800000 </v>
   <v>       0.04800000 </v>
   <v>       0.04800000 </v>
   <v>       0.09600000 </v>
   <v>       0.19200000 </v>
   <v>       0.09600000 </v>
   <v>       0.06400000 </v>
   <v>       0.19200000 </v>
   <v>       0.19200000 </v>
   <v>       0.06400000 </v>
  </varray>
 </kpoints>
 <parameters>
  <separator name="general" >
   <i type="string" name="SYSTEM">unknown system</i>
   <i type="logical" name="LCOMPAT"> F  </i>
  </separator>
  <separator name="electronic" >
   <i type="string" name="PREC">accura</i>
   <i name="ENMAX">    520.00000000</i>
   <i name="ENAUG">    531.92600000</i>
   <i name="EDIFF">      0.00050000</i>
   <i type="int" name="IALGO">    68</i>
   <i type="int" name="IWAVPR">    11</i>
   <i type="int" name="NBANDS">    48</i>
   <i name="NELECT">     44.00000000</i>
   <i type="int" name="TURBO">     0</i>
   <i type="int" name="IRESTART">     0</i>
   <i type="int" name="NREBOOT">     0</i>
   <i type="int" name="NMIN">     0</i>
   <i name="EREF">      0.00000000</i>
   <separator name="electronic smearing" >
    <i type="int" name="ISMEAR">     0</i>
    <i name="SIGMA">      0.05000000</i>
    <i name="KSPACING">      0.50000000</i>
    <i type="logical" name="KGAMMA"> T  </i>
    <i type="logical" name="KBLOWUP"> T  </i>
   </separator>
   <separator name="electronic projectors" >
    <i type="logical" name="LREAL"> T  </i>
    <v name="ROPT">     -0.00025000     -0.00025000</v>
    <i type="int" name="LMAXPAW">  -100</i>
    <i type="int" name="LMAXMIX">     2</i>
    <i type="logical" name="NLSPLINE"> F  </i>
   </separator>
   <separator name="electronic startup" >
    <i type="int" name="ISTART">     0</i>
    <i type="int" name="ICHARG">     1</i>
    <i type="int" name="INIWAV">     1</i>
   </separator>
   <separator name="electronic spin" >
    <i type="int" name="ISPIN">     2</i>
    <i type="logical" name="LNONCOLLINEAR"> F  </i>
    <v name="MAGMOM">      0.60000000      0.60000000      0.60000000      0.60000000      0.60000000      0.60000000      0.60000000      0.60000000      0.60000000      0.60000000</v>
    <i name="NUPDOWN">     -1.00000000</i>
    <i type="logical" name="LSORBIT"> F  </i>
    <v name="SAXIS">      0.00000000      0.00000000      1.00000000</v>
    <i type="logical" name="LSPIRAL"> F  </i>
    <v name="QSPIRAL">      0.00000000      0.00000000      0.00000000</v>
    <i type="logical" name="LZEROZ"> F  </i>
   </separator>
   <separator name="electronic exchange-correlation" >
    <i type="logical" name="LASPH"> F  </i>
    <i type="logical" name="LMETAGGA"> F  </i>
   </separator>
   <separator name="electronic convergence" >
    <i type="int" name="NELM">   100</i>
    <i type="int" name="NELMDL">     0</i>
    <i type="int" name="NELMIN">     2</i>
    <i name="ENINI">    520.00000000</i>
    <separator name="electronic convergence detail" >
     <i type="logical" name="LDIAG"> T  </i>
     <i type="logical" name="LSUBROT"> F  </i>
     <i name="WEIMIN">      0.00100000</i>
     <i name="EBREAK">      0.00000260</i>
     <i name="DEPER">      0.30000000</i>
     <i type="int" name="NRMM">     4</i>
     <i name="TIME">      0.40000000</i>
    </separator>
   </separator>
   <separator name="electronic mixer" >
    <i name="AMIX">      0.40000000</i>
    <i name="BMIX">      1.00000000</i>
    <i name="AMIN">      0.10000000</i>
    <i name="AMIX_MAG">      1.60000000</i>
    <i name="BMIX_MAG">      1.00000000</i>
    <separator name="electronic mixer details" >
     <i type="int" name="IMIX">     4</i>
     <i type="logical" name="MIXFIRST"> F  </i>
     <i type="int" name="MAXMIX">   -45</i>
     <i name="WC">    100.00000000</i>
     <i type="int" name="INIMIX">     1</i>
     <i type="int" name="MIXPRE">     1</i>
     <i type="int" name="MREMOVE">     5</i>
    </separator>
   </separator>
   <separator name="electronic dipolcorrection" >
    <i type="logical" name="LDIPOL"> F  </i>
    <i type="logical" name="LMONO"> F  </i>
    <i type="int" name="IDIPOL">     0</i>
    <i name="EPSILON">      1.00000000</i>
    <v name="DIPOL">   -100.00000000   -100.00000000   -100.00000000</v>
    <i name="EFIELD">      0.00000000</i>
   </separator>
  </separator>
  <separator name="grids" >
   <i type="int" name="NGX">    36</i>
   <i type="int" name="NGY">    36</i>
   <i type="int" name="NGZ">    36</i>
   <i type="int" name="NGXF">    72</i>
   <i type="int" name="NGYF">    72</i>
   <i type="int" name="NGZF">    72</i>
   <i type="logical" name="ADDGRID"> F  </i>
  </separator>
  <separator name="ionic" >
   <i type="int" name="NSW">    99</i>
   <i type="int" name="IBRION">     2</i>
   <i type="int" name="MDALGO">     0</i>
   <i type="int" name="ISIF">     3</i>
   <i name="PSTRESS">      0.00000000</i>
   <i name="EDIFFG">      0.00500000</i>
   <i type="int" name="NFREE">     1</i>
   <i name="POTIM">      0.50000000</i>
   <i name="SMASS">     -3.00000000</i>
   <i name="SCALEE">      1.00000000</i>
  </separator>
  <separator name="ionic md" >
   <i name="TEBEG">      0.00010000</i>
   <i name="TEEND">      0.00010000</i>
   <i type="int" name="NBLOCK">     1</i>
   <i type="int" name="KBLOCK">    99</i>
   <i type="int" name="NPACO">   256</i>
   <i name="APACO">     16.00000000</i>
  </separator>
  <separator name="symmetry" >
   <i type="int" name="ISYM">     2</i>
   <i name="SYMPREC">      0.00001000</i>
  </separator>
  <separator name="dos" >
   <i type="int" name="LORBIT">    11</i>
   <v name="RWIGS">     -1.00000000     -1.00000000</v>
   <i type="int" name="NEDOS">   301</i>
   <i name="EMIN">     10.00000000</i>
   <i name="EMAX">    -10.00000000</i>
   <i name="EFERMI">      0.00000000</i>
  </separator>
  <separator name="writing" >
   <i type="int" name="NWRITE">     2</i>
   <i type="logical" name="LWAVE"> F  </i>
   <i type="logical" name="LDOWNSAMPLE"> F  </i>
   <i type="logical" name="LCHARG"> T  </i>
   <i type="logical" name="LPARD"> F  </i>
   <i type="logical" name="LVTOT"> F  </i>
   <i type="logical" name="LVHAR"> F  </i>
   <i type="logical" name="LELF"> F  </i>
   <i type="logical" name="LOPTICS"> F  </i>
   <v name="STM">      0.00000000      0.00000000      0.00000000      0.00000000      0.00000000      0.00000000      0.00000000</v>
  </separator>
  <separator name="performance" >
   <i type="int" name="NPAR">    24</i>
   <i type="int" name="NSIM">     4</i>
   <i type="int" name="NBLK">    -1</i>
   <i type="logical" name="LPLANE"> T  </i>
   <i type="logical" name="LSCALAPACK"> T  </i>
   <i type="logical" name="LSCAAWARE"> F  </i>
   <i type="logical" name="LSCALU"> F  </i>
   <i type="logical" name="LASYNC"> F  </i>
   <i type="logical" name="LORBITALREAL"> F  </i>
  </separator>
  <separator name="miscellaneous" >
   <i type="int" name="IDIOT">     3</i>
   <i type="int" name="ISPECIAL">     0</i>
   <i type="logical" name="LMUSIC"> F  </i>
   <v name="POMASS">      9.01300000     30.97400000</v>
   <v name="DARWINR">      0.00000000      0.00000000</v>
   <v name="DARWINV">      1.00000000      1.00000000</v>
   <i type="logical" name="LCORR"> T  </i>
  </separator>
  <i type="logical" name="GGA_COMPAT"> T  </i>
  <i type="logical" name="LBERRY"> F  </i>
  <i type="int" name="ICORELEVEL">     0</i>
  <i type="logical" name="LDAU"> F  </i>
  <i type="int" name="I_CONSTRAINED_M">     0</i>
  <separator name="electronic exchange-correlation" >
   <i type="string" name="GGA">--</i>
   <i type="int" name="VOSKOWN">     0</i>
   <i type="logical" name="LHFCALC"> F  </i>
   <i type="string" name="PRECFOCK"></i>
   <i type="logical" name="LSYMGRAD"> F  </i>
   <i type="logical" name="LHFONE"> F  </i>
   <i type="logical" name="LRHFCALC"> F  </i>
   <i type="logical" name="LTHOMAS"> F  </i>
   <i type="logical" name="LMODELHF"> F  </i>
   <i type="logical" name="LFOCKACE"> F  </i>
   <i name="ENCUT4O">     -1.00000000</i>
   <i type="int" name="EXXOEP">     0</i>
   <i type="int" name="FOURORBIT">     0</i>
   <i name="AEXX">      0.00000000</i>
   <i name="HFALPHA">      0.00000000</i>
   <i name="MCALPHA">      0.00000000</i>
   <i name="ALDAX">      1.00000000</i>
   <i name="AGGAX">      1.00000000</i>
   <i name="ALDAC">      1.00000000</i>
   <i name="AGGAC">      1.00000000</i>
   <i type="int" name="NKREDX">     1</i>
   <i type="int" name="NKREDY">     1</i>
   <i type="int" name="NKREDZ">     1</i>
   <i type="logical" name="SHIFTRED"> F  </i>
   <i type="logical" name="ODDONLY"> F  </i>
   <i type="logical" name="EVENONLY"> F  </i>
   <i type="int" name="LMAXFOCK">     0</i>
   <i type="int" name="NMAXFOCKAE">     0</i>
   <i type="logical" name="LFOCKAEDFT"> F  </i>
   <i name="HFSCREEN">      0.00000000</i>
   <i name="HFSCREENC">      0.00000000</i>
   <i type="int" name="NBANDSGWLOW">     0</i>
  </separator>
  <separator name="vdW DFT" >
   <i type="logical" name="LUSE_VDW"> F  </i>
   <i name="Zab_VDW">     -0.84910000</i>
   <i name="PARAM1">      0.12340000</i>
   <i name="PARAM2">      1.00000000</i>
   <i name="PARAM3">      0.00000000</i>
  </separator>
  <separator name="model GW" >
   <i type="int" name="MODEL_GW">     0</i>
   <i name="MODEL_EPS0">      5.62490534</i>
   <i name="MODEL_ALPHA">      1.00000000</i>
  </separator>
  <separator name="linear response parameters" >
   <i type="logical" name="LEPSILON"> F  </i>
   <i type="logical" name="LRPA"> F  </i>
   <i type="logical" name="LNABLA"> F  </i>
   <i type="logical" name="LVEL"> F  </i>
   <i type="int" name="KINTER">     0</i>
   <i name="CSHIFT">      0.10000000</i>
   <i name="OMEGAMAX">     -1.00000000</i>
   <i name="DEG_THRESHOLD">      0.00200000</i>
   <i name="RTIME">     -0.10000000</i>
   <i name="WPLASMAI">      0.00000000</i>
   <v name="DFIELD">      0.00000000      0.00000000      0.00000000</v>
   <v name="WPLASMA">      0.00000000      0.00000000      0.00000000      0.00000000      0.00000000      0.00000000      0.00000000      0.00000000      0.00000000</v>
  </separator>
  <separator name="orbital magnetization" >
   <i type="logical" name="NUCIND"> F  </i>
   <v name="MAGPOS">      0.00000000      0.00000000      0.00000000</v>
   <i type="logical" name="LNICSALL"> T  </i>
   <i type="logical" name="ORBITALMAG"> F  </i>
   <i type="logical" name="LMAGBLOCH"> F  </i>
   <i type="logical" name="LCHIMAG"> F  </i>
   <i type="logical" name="LGAUGE"> T  </i>
   <i type="int" name="MAGATOM">     0</i>
   <v name="MAGDIPOL">      0.00000000      0.00000000      0.00000000</v>
   <v name="AVECCONST">      0.00000000      0.00000000      0.00000000</v>
  </separator>
  <separator name="response functions" >
   <i type="logical" name="LADDER"> F  </i>
   <i type="logical" name="LRPAFORCE"> F  </i>
   <i type="logical" name="LFXC"> F  </i>
   <i type="logical" name="LHARTREE"> T  </i>
   <i type="int" name="IBSE">     0</i>
   <v type="int" name="KPOINT">    -1     0     0     0</v>
   <i type="logical" name="LTCTE"> F  </i>
   <i type="logical" name="LTETE"> F  </i>
   <i type="logical" name="LTRIPLET"> F  </i>
   <i type="logical" name="LFXCEPS"> F  </i>
   <i type="logical" name="LFXHEG"> F  </i>
   <i type="int" name="NATURALO">     2</i>
   <i type="logical" name="L2ORDER"> F  </i>
   <i type="logical" name="LMP2LT"> F  </i>
   <i type="logical" name="LUSEW"> F  </i>
   <i name="ENCUTGW">     -2.00000000</i>
   <i name="ENCUTGWSOFT">     -2.00000000</i>
   <i name="ENCUTLF">     -1.00000000</i>
   <i type="int" name="LMAXMP2">    -1</i>
   <i name="SCISSOR">      0.00000000</i>
   <i type="int" name="NOMEGA">     0</i>
   <i type="int" name="NOMEGAR">     0</i>
   <i type="int" name="NBANDSGW">    -1</i>
   <i type="int" name="NBANDSO">    -1</i>
   <i type="int" name="NBANDSV">    -1</i>
   <i type="int" name="NELM">   100</i>
   <i type="int" name="NELMHF">     1</i>
   <i type="int" name="DIM">     3</i>
   <i type="int" name="ANTIRES">     0</i>
   <i name="OMEGAMAX">    -30.00000000</i>
   <i name="OMEGAMIN">    -30.00000000</i>
   <i name="OMEGATL">   -200.00000000</i>
   <i type="int" name="OMEGAGRID">   140</i>
   <i name="CSHIFT">     -0.10000000</i>
   <i type="logical" name="SELFENERGY"> F  </i>
   <i type="logical" name="LSPECTRAL"> F  </i>
   <i type="logical" name="LSPECTRALGW"> F  </i>
   <i type="logical" name="LSINGLES"> F  </i>
   <i type="logical" name="LFERMIGW"> F  </i>
   <i type="logical" name="ODDONLYGW"> F  </i>
   <i type="logical" name="EVENONLYGW"> F  </i>
   <i type="int" name="NKREDLFX">     1</i>
   <i type="int" name="NKREDLFY">     1</i>
   <i type="int" name="NKREDLFZ">     1</i>
   <i type="int" name="MAXMEM">  2800</i>
   <i type="int" name="TELESCOPE">     0</i>
   <i type="int" name="TAUPAR">     1</i>
   <i type="int" name="OMEGAPAR">    -1</i>
   <i name="LAMBDA">      1.00000000</i>
  </separator>
  <separator name="External order field" >
   <i name="OFIELD_KAPPA">      0.00000000</i>
   <v name="OFIELD_K">      0.00000000      0.00000000      0.00000000</v>
   <i name="OFIELD_Q6_NEAR">      0.00000000</i>
   <i name="OFIELD_Q6_FAR">      0.00000000</i>
   <i name="OFIELD_A">      0.00000000</i>
  </separator>
 </parameters>
 <atominfo>
  <atoms>      10 </atoms>
  <types>       2 </types>
  <array name="atoms" >
   <dimension dim="1">ion</dimension>
   <field type="string">element</field>
   <field type="int">atomtype</field>
   <set>
    <rc><c>Be</c><c>   1</c></rc>
    <rc><c>Be</c><c>   1</c></rc>
    <rc><c>Be</c><c>   1</c></rc>
    <rc><c>Be</c><c>   1</c></rc>
    <rc><c>Be</c><c>   1</c></rc>
    <rc><c>Be</c><c>   1</c></rc>
    <rc><c>P </c><c>   2</c></rc>
    <rc><c>P </c><c>   2</c></rc>
    <rc><c>P </c><c>   2</c></rc>
    <rc><c>P </c><c>   2</c></rc>
   </set>
  </array>
  <array name="atomtypes" >
   <dimension dim="1">type</dimension>
   <field type="int">atomspertype</field>
   <field type="string">element</field>
   <field>mass</field>
   <field>valence</field>
   <field type="string">pseudopotential</field>
   <set>
    <rc><c>   6</c><c>Be</c><c>      9.01300000</c><c>      4.00000000</c><c> PAW_PBE Be_sv 06Sep2000                </c></rc>
    <rc><c>   4</c><c>P </c><c>     30.97400000</c><c>      5.00000000</c><c>  PAW_PBE P 17Jan2003                   </c></rc>
   </set>
  </array>
 </atominfo>
 <structure name="initialpos" >
  <crystal>
   <varray name="basis" >
    <v>       4.54277600       0.00000000       0.00000000 </v>
    <v>       0.00000000       4.54277600       0.00000000 </v>
    <v>       0.00000000       0.00000000       4.54277600 </v>
   </varray>
   <i name="volume">     93.74842238 </i>
   <varray name="rec_basis" >
    <v>       0.22012972       0.00000000       0.00000000 </v>
    <v>       0.00000000       0.22012972       0.00000000 </v>
    <v>       0.00000000       0.00000000       0.22012972 </v>
   </varray>
  </crystal>
  <varray name="positions" >
   <v>       0.00000000       0.00000000       0.50000000 </v>
   <v>       0.00000000       0.50000000       0.00000000 </v>
   <v>       0.50000000       0.00000000       0.00000000 </v>
   <v>       0.50000000       0.00000000       0.50000000 </v>
   <v>       0.50000000       0.50000000       0.00000000 </v>
   <v>       0.00000000       0.50000000       0.50000000 </v>
   <v>       0.75000000       0.75000000       0.25000000 </v>
   <v>       0.25000000       0.75000000       0.75000000 </v>
   <v>       0.75000000       0.25000000       0.75000000 </v>
   <v>       0.25000000       0.25000000       0.25000000 </v>
  </varray>
 </structure>
 <calculation>
  <scstep>
   <time name="dav">    0.64    0.64</time>
   <time name="total">    0.67    0.67</time>
   <energy>
    <i name="alphaZ">    132.60525065 </i>
    <i name="ewald">  -1791.86889160 </i>
    <i name="hartreedc">   -365.78600819 </i>
    <i name="XCdc">    124.89711697 </i>
    <i name="pawpsdc">    823.61477977 </i>
    <i name="pawaedc">  -1069.39405230 </i>
    <i name="eentropy">     -0.00433631 </i>
    <i name="bandstr">   -697.61221655 </i>
    <i name="atom">   3092.64069299 </i>
    <i name="e_fr_energy">    249.09233542 </i>
    <i name="e_wo_entrp">    249.09667173 </i>
    <i name="e_0_energy">    249.09450357 </i>
   </energy>
  </scstep>
  <scstep>
   <time name="dav">    0.64    0.64</time>
   <time name="total">    0.64    0.64</time>
   <energy>
    <i name="e_fr_energy">    -35.51908623 </i>
    <i name="e_wo_entrp">    -35.51627311 </i>
    <i name="e_0_energy">    -35.51767967 </i>
   </energy>
  </scstep>
  <scstep>
   <time name="dav">    0.89    0.89</time>
   <time name="total">    0.89    0.89</time>
   <energy>
    <i name="e_fr_energy">    -46.12162067 </i>
    <i name="e_wo_entrp">    -46.11782331 </i>
    <i name="e_0_energy">    -46.11972199 </i>
   </energy>
  </scstep>
  <scstep>
   <time name="dav">    0.68    0.68</time>
   <time name="total">    0.68    0.68</time>
   <energy>
    <i name="e_fr_energy">    -46.23990075 </i>
    <i name="e_wo_entrp">    -46.23611226 </i>
    <i name="e_0_energy">    -46.23800651 </i>
   </energy>
  </scstep>
  <scstep>
   <time name="dav">    0.96    0.96</time>
   <time name="total">    0.99    0.99</time>
   <energy>
    <i name="e_fr_energy">    -46.24209435 </i>
    <i name="e_wo_entrp">    -46.23830594 </i>
    <i name="e_0_energy">    -46.24020014 </i>
   </energy>
  </scstep>
  <scstep>
   <time name="diag">    0.11    0.11</time>
   <time name="diis">    0.33    0.33</time>
   <time name="orth">    0.01    0.01</time>
   <time name="total">    0.51    0.51</time>
   <energy>
    <i name="e_fr_energy">    -41.30915450 </i>
    <i name="e_wo_entrp">    -41.30644643 </i>
    <i name="e_0_energy">    -41.30780047 </i>
   </energy>
  </scstep>
  <scstep>
   <time name="diag">    0.11    0.11</time>
   <time name="diis">    0.33    0.33</time>
   <time name="orth">    0.01    0.01</time>
   <time name="total">    0.50    0.51</time>
   <energy>
    <i name="e_fr_energy">    -39.52978227 </i>
    <i name="e_wo_entrp">    -39.52622956 </i>
    <i name="e_0_energy">    -39.52800592 </i>
   </energy>
  </scstep>
  <scstep>
   <time name="diag">    0.12    0.12</time>
   <time name="diis">    0.32    0.33</time>
   <time name="orth">    0.01    0.01</time>
   <time name="total">    0.51    0.52</time>
   <energy>
    <i name="e_fr_energy">    -39.40000366 </i>
    <i name="e_wo_entrp">    -39.39729391 </i>
    <i name="e_0_energy">    -39.39864879 </i>
   </energy>
  </scstep>
  <scstep>
   <time name="diag">    0.11    0.11</time>
   <time name="diis">    0.31    0.31</time>
   <time name="orth">    0.01    0.01</time>
   <time name="total">    0.49    0.49</time>
   <energy>
    <i name="e_fr_energy">    -39.39747328 </i>
    <i name="e_wo_entrp">    -39.39476401 </i>
    <i name="e_0_energy">    -39.39611865 </i>
   </energy>
  </scstep>
  <scstep>
   <time name="diag">    0.11    0.11</time>
   <time name="diis">    0.26    0.26</time>
   <time name="orth">    0.01    0.01</time>
   <time name="total">    0.41    0.41</time>
   <energy>
    <i name="alphaZ">    132.60525065 </i>
    <i name="ewald">  -1791.86889160 </i>
    <i name="hartreedc">   -294.37952738 </i>
    <i name="XCdc">    117.85981956 </i>
    <i name="pawpsdc">    979.10855845 </i>
    <i name="pawaedc">  -1228.67546750 </i>
    <i name="eentropy">     -0.00270962 </i>
    <i name="bandstr">  -1046.68516596 </i>
    <i name="atom">   3092.64069299 </i>
    <i name="e_fr_energy">    -39.39744042 </i>
    <i name="e_wo_entrp">    -39.39473080 </i>
    <i name="e_0_energy">    -39.39608561 </i>
   </energy>
  </scstep>
  <structure>
   <crystal>
    <varray name="basis" >
     <v>       4.54277600       0.00000000       0.00000000 </v>
     <v>       0.00000000       4.54277600       0.00000000 </v>
     <v>       0.00000000       0.00000000       4.54277600 </v>
    </varray>
    <i name="volume">     93.74842238 </i>
    <varray name="rec_basis" >
     <v>       0.22012972       0.00000000       0.00000000 </v>
     <v>       0.00000000       0.22012972       0.00000000 </v>
     <v>       0.00000000       0.00000000       0.22012972 </v>
    </varray>
   </crystal>
   <varray name="positions" >
    <v>       0.00000000       0.00000000       0.50000000 </v>
    <v>       0.00000000       0.50000000       0.00000000 </v>
    <v>       0.50000000       0.00000000       0.00000000 </v>
    <v>       0.50000000       0.00000000       0.50000000 </v>
    <v>       0.50000000       0.50000000       0.00000000 </v>
    <v>       0.00000000       0.50000000       0.50000000 </v>
    <v>       0.75000000       0.75000000       0.25000000 </v>
    <v>       0.25000000       0.75000000       0.75000000 </v>
    <v>       0.75000000       0.25000000       0.75000000 </v>
    <v>       0.25000000       0.25000000       0.25000000 </v>
   </varray>
  </structure>
  <varray name="forces" >
   <v>      -0.00000000       0.00000000       0.00000000 </v>
   <v>      -0.00000000       0.00000000       0.00000000 </v>
   <v>      -0.00000000       0.00000000       0.00000000 </v>
   <v>      -0.00000000       0.00000000       0.00000000 </v>
   <v>      -0.00000000       0.00000000       0.00000000 </v>
   <v>      -0.00000000       0.00000000       0.00000000 </v>
   <v>       0.00000000      -0.00000000      -0.00000000 </v>
   <v>       0.00000000       0.00000000       0.00000000 </v>
   <v>       0.00000000      -0.00000000      -0.00000000 </v>
   <v>      -0.00000000      -0.00000000      -0.00000000 </v>
  </varray>
  <varray name="stress" >
   <v>     600.08920627      -0.00000000      -0.00000000 </v>
   <v>      -0.00000000     600.08920627      -0.00000000 </v>
   <v>       0.00000000      -0.00000000     600.08920627 </v>
  </varray>
  <energy>
   <i name="e_fr_energy">    -39.39744042 </i>
   <i name="e_wo_entrp">    -39.39608561 </i>
   <i name="e_0_energy">     -0.00270962 </i>
  </energy>
  <time name="totalsc">    8.30    8.34</time>
 </calculation>
 <calculation>
  <scstep>
   <time name="dav">    0.84    0.84</time>
   <time name="total">    0.90    0.90</time>
   <energy>
    <i name="alphaZ">     82.92340124 </i>
    <i name="ewald">  -1532.30431738 </i>
    <i name="hartreedc">   -251.79335501 </i>
    <i name="XCdc">     97.70331620 </i>
    <i name="pawpsdc">    979.29963191 </i>
    <i name="pawaedc">  -1228.89052351 </i>
    <i name="eentropy">     -0.00000000 </i>
    <i name="bandstr">  -1294.71113874 </i>
    <i name="atom">   3092.64069299 </i>
    <i name="e_fr_energy">    -55.13229230 </i>
    <i name="e_wo_entrp">    -55.13229230 </i>
    <i name="e_0_energy">    -55.13229230 </i>
   </energy>
  </scstep>
  <scstep>
   <time name="diag">    0.12    0.12</time>
   <time name="diis">    0.28    0.28</time>
   <time name="orth">    0.01    0.01</time>
   <time name="total">    0.47    0.47</time>
   <energy>
    <i name="e_fr_energy">    -47.42405541 </i>
    <i name="e_wo_entrp">    -47.42405423 </i>
    <i name="e_0_energy">    -47.42405482 </i>
   </energy>
  </scstep>
  <scstep>
   <time name="diag">    0.11    0.11</time>
   <time name="diis">    0.29    0.29</time>
   <time name="orth">    0.01    0.01</time>
   <time name="total">    0.47    0.47</time>
   <energy>
    <i name="e_fr_energy">    -44.57344307 </i>
    <i name="e_wo_entrp">    -44.57328052 </i>
    <i name="e_0_energy">    -44.57336180 </i>
   </energy>
  </scstep>
  <scstep>
   <time name="diag">    0.11    0.11</time>
   <time name="diis">    0.29    0.29</time>
   <time name="orth">    0.01    0.01</time>
   <time name="total">    0.47    0.47</time>
   <energy>
    <i name="e_fr_energy">    -44.15067464 </i>
    <i name="e_wo_entrp">    -44.15067464 </i>
    <i name="e_0_energy">    -44.15067464 </i>
   </energy>
  </scstep>
  <scstep>
   <time name="diag">    0.11    0.11</time>
   <time name="diis">    0.28    0.28</time>
   <time name="orth">    0.01    0.01</time>
   <time name="total">    0.46    0.46</time>
   <energy>
    <i name="e_fr_energy">    -44.14946848 </i>
    <i name="e_wo_entrp">    -44.14946848 </i>
    <i name="e_0_energy">    -44.14946848 </i>
   </energy>
  </scstep>
  <scstep>
   <time name="diag">    0.11    0.11</time>
   <time name="diis">    0.25    0.25</time>
   <time name="orth">    0.01    0.01</time>
   <time name="total">    0.40    0.40</time>
   <energy>
    <i name="alphaZ">     82.92340124 </i>
    <i name="ewald">  -1532.30431738 </i>
    <i name="hartreedc">   -343.28798342 </i>
    <i name="XCdc">    107.40707371 </i>
    <i name="pawpsdc">    780.26095532 </i>
    <i name="pawaedc">  -1024.87994329 </i>
    <i name="eentropy">     -0.00000000 </i>
    <i name="bandstr">  -1206.90943605 </i>
    <i name="atom">   3092.64069299 </i>
    <i name="e_fr_energy">    -44.14955689 </i>
    <i name="e_wo_entrp">    -44.14955688 </i>
    <i name="e_0_energy">    -44.14955689 </i>
   </energy>
  </scstep>
  <structure>
   <crystal>
    <varray name="basis" >
     <v>       5.31229920      -0.00000000      -0.00000000 </v>
     <v>      -0.00000000       5.31229920      -0.00000000 </v>
     <v>       0.00000000      -0.00000000       5.31229920 </v>
    </varray>
    <i name="volume">    149.91586045 </i>
    <varray name="rec_basis" >
     <v>       0.18824241       0.00000000      -0.00000000 </v>
     <v>       0.00000000       0.18824241       0.00000000 </v>
     <v>       0.00000000       0.00000000       0.18824241 </v>
    </varray>
   </crystal>
   <varray name="positions" >
    <v>      -0.00000000       0.00000000       0.50000000 </v>
    <v>      -0.00000000       0.50000000       0.00000000 </v>
    <v>       0.50000000       0.00000000       0.00000000 </v>
    <v>       0.50000000       0.00000000       0.50000000 </v>
    <v>       0.50000000       0.50000000       0.00000000 </v>
    <v>      -0.00000000       0.50000000       0.50000000 </v>
    <v>       0.75000000       0.75000000       0.25000000 </v>
    <v>       0.25000000       0.75000000       0.75000000 </v>
    <v>       0.75000000       0.25000000       0.75000000 </v>
    <v>       0.25000000       0.25000000       0.25000000 </v>
   </varray>
  </structure>
  <varray name="forces" >
   <v>       0.00000000       0.00000000      -0.00000000 </v>
   <v>       0.00000000       0.00000000      -0.00000000 </v>
   <v>       0.00000000       0.00000000      -0.00000000 </v>
   <v>       0.00000000       0.00000000       0.00000000 </v>
   <v>       0.00000000       0.00000000      -0.00000000 </v>
   <v>       0.00000000       0.00000000      -0.00000000 </v>
   <v>      -0.00000000      -0.00000000       0.00000000 </v>
   <v>       0.00000000       0.00000000      -0.00000000 </v>
   <v>      -0.00000000      -0.00000000       0.00000000 </v>
   <v>      -0.00000000       0.00000000       0.00000000 </v>
  </varray>
  <varray name="stress" >
   <v>    -103.68962365      -0.00000000       0.00000000 </v>
   <v>       0.00000000    -103.68962365       0.00000000 </v>
   <v>       0.00000000       0.00000000    -103.68962365 </v>
  </varray>
  <energy>
   <i name="e_fr_energy">    -44.14955689 </i>
   <i name="e_wo_entrp">    -44.14955689 </i>
   <i name="e_0_energy">     -0.00000000 </i>
  </energy>
  <time name="totalsc">    3.80    3.81</time>
 </calculation>
 <calculation>
  <scstep>
   <time name="dav">    0.86    0.86</time>
   <time name="total">    0.92    0.92</time>
   <energy>
    <i name="alphaZ">     95.31151852 </i>
    <i name="ewald">  -1605.09639437 </i>
    <i name="hartreedc">   -359.60791474 </i>
    <i name="XCdc">    113.36094576 </i>
    <i name="pawpsdc">    780.12363973 </i>
    <i name="pawaedc">  -1024.75431975 </i>
    <i name="eentropy">     -0.00050344 </i>
    <i name="bandstr">  -1137.96342914 </i>
    <i name="atom">   3092.64069299 </i>
    <i name="e_fr_energy">    -45.98576444 </i>
    <i name="e_wo_entrp">    -45.98526101 </i>
    <i name="e_0_energy">    -45.98551273 </i>
   </energy>
  </scstep>
  <scstep>
   <time name="diag">    0.11    0.11</time>
   <time name="diis">    0.29    0.29</time>
   <time name="orth">    0.01    0.01</time>
   <time name="total">    0.47    0.47</time>
   <energy>
    <i name="e_fr_energy">    -45.13817670 </i>
    <i name="e_wo_entrp">    -45.13709887 </i>
    <i name="e_0_energy">    -45.13763778 </i>
   </energy>
  </scstep>
  <scstep>
   <time name="diag">    0.11    0.11</time>
   <time name="diis">    0.30    0.30</time>
   <time name="orth">    0.01    0.01</time>
   <time name="total">    0.47    0.47</time>
   <energy>
    <i name="e_fr_energy">    -44.89619003 </i>
    <i name="e_wo_entrp">    -44.89618823 </i>
    <i name="e_0_energy">    -44.89618913 </i>
   </energy>
  </scstep>
  <scstep>
   <time name="diag">    0.11    0.11</time>
   <time name="diis">    0.30    0.30</time>
   <time name="orth">    0.01    0.01</time>
   <time name="total">    0.47    0.48</time>
   <energy>
    <i name="e_fr_energy">    -44.82166444 </i>
    <i name="e_wo_entrp">    -44.82163225 </i>
    <i name="e_0_energy">    -44.82164834 </i>
   </energy>
  </scstep>
  <scstep>
   <time name="diag">    0.11    0.11</time>
   <time name="diis">    0.28    0.28</time>
   <time name="orth">    0.01    0.01</time>
   <time name="total">    0.43    0.43</time>
   <energy>
    <i name="alphaZ">     95.31151852 </i>
    <i name="ewald">  -1605.09639437 </i>
    <i name="hartreedc">   -327.50167324 </i>
    <i name="XCdc">    110.17929093 </i>
    <i name="pawpsdc">    822.64395231 </i>
    <i name="pawaedc">  -1068.29477218 </i>
    <i name="eentropy">     -0.00002127 </i>
    <i name="bandstr">  -1164.70382115 </i>
    <i name="atom">   3092.64069299 </i>
    <i name="e_fr_energy">    -44.82122747 </i>
    <i name="e_wo_entrp">    -44.82120620 </i>
    <i name="e_0_energy">    -44.82121683 </i>
   </energy>
  </scstep>
  <structure>
   <crystal>
    <varray name="basis" >
     <v>       5.07138327      -0.00000000      -0.00000000 </v>
     <v>      -0.00000000       5.07138327      -0.00000000 </v>
     <v>       0.00000000      -0.00000000       5.07138327 </v>
    </varray>
    <i name="volume">    130.43054231 </i>
    <varray name="rec_basis" >
     <v>       0.19718486       0.00000000      -0.00000000 </v>
     <v>       0.00000000       0.19718486       0.00000000 </v>
     <v>       0.00000000       0.00000000       0.19718486 </v>
    </varray>
   </crystal>
   <varray name="positions" >
    <v>      -0.00000000       0.00000000       0.50000000 </v>
    <v>      -0.00000000       0.50000000       0.00000000 </v>
    <v>       0.50000000       0.00000000       0.00000000 </v>
    <v>       0.50000000       0.00000000       0.50000000 </v>
    <v>       0.50000000       0.50000000       0.00000000 </v>
    <v>      -0.00000000       0.50000000       0.50000000 </v>
    <v>       0.75000000       0.75000000       0.25000000 </v>
    <v>       0.25000000       0.75000000       0.75000000 </v>
    <v>       0.75000000       0.25000000       0.75000000 </v>
    <v>       0.25000000       0.25000000       0.25000000 </v>
   </varray>
  </structure>
  <varray name="forces" >
   <v>       0.00000000      -0.00000000       0.00000000 </v>
   <v>       0.00000000      -0.00000000      -0.00000000 </v>
   <v>       0.00000000      -0.00000000       0.00000000 </v>
   <v>       0.00000000      -0.00000000      -0.00000000 </v>
   <v>       0.00000000      -0.00000000       0.00000000 </v>
   <v>       0.00000000      -0.00000000       0.00000000 </v>
   <v>       0.00000000      -0.00000000      -0.00000000 </v>
   <v>       0.00000000       0.00000000      -0.00000000 </v>
   <v>      -0.00000000      -0.00000000       0.00000000 </v>
   <v>      -0.00000000       0.00000000       0.00000000 </v>
  </varray>
  <varray name="stress" >
   <v>       8.28678051       0.00000000      -0.00000000 </v>
   <v>       0.00000000       8.28678051       0.00000000 </v>
   <v>       0.00000000       0.00000000       8.28678051 </v>
  </varray>
  <energy>
   <i name="e_fr_energy">    -44.82122747 </i>
   <i name="e_wo_entrp">    -44.82121683 </i>
   <i name="e_0_energy">     -0.00002127 </i>
  </energy>
  <time name="totalsc">    3.38    3.39</time>
  <eigenvalues>
   <array>
    <dimension dim="1">band</dimension>
    <dimension dim="2">kpoint</dimension>
    <dimension dim="3">spin</dimension>
    <field>eigene</field>
    <field>occ</field>
    <set>
     <set comment="spin 1">
      <set comment="kpoint 1">
       <r>  -95.8563    1.0000 </r>
       <r>  -95.8554    1.0000 </r>
       <r>  -95.8554    1.0000 </r>
       <r>  -95.8538    1.0000 </r>
       <r>  -95.8538    1.0000 </r>
       <r>  -95.8530    1.0000 </r>
       <r>   -8.0123    1.0000 </r>
       <r>   -5.2550    1.0000 </r>
       <r>   -5.2550    1.0000 </r>
       <r>   -5.2550    1.0000 </r>
       <r>   -1.8198    1.0000 </r>
       <r>   -1.8198    1.0000 </r>
       <r>    0.3805    1.0000 </r>
       <r>    0.3805    1.0000 </r>
       <r>    0.3805    1.0000 </r>
       <r>    0.8024    1.0000 </r>
       <r>    2.3429    1.0000 </r>
       <r>    2.3429    1.0000 </r>
       <r>    2.3429    1.0000 </r>
       <r>    5.4144    0.9980 </r>
       <r>    5.4144    0.9980 </r>
       <r>    5.4144    0.9980 </r>
       <r>    5.6183    0.0020 </r>
       <r>    5.6183    0.0020 </r>
       <r>    5.6183    0.0020 </r>
       <r>    5.8432    0.0000 </r>
       <r>    5.8432    0.0000 </r>
       <r>    7.6528    0.0000 </r>
       <r>    7.6528    0.0000 </r>
       <r>    7.6528    0.0000 </r>
       <r>    8.3514    0.0000 </r>
       <r>   10.9195    0.0000 </r>
       <r>   13.7232    0.0000 </r>
       <r>   13.7232    0.0000 </r>
       <r>   13.7232    0.0000 </r>
       <r>   14.5911    0.0000 </r>
       <r>   14.5912    0.0000 </r>
       <r>   14.5912    0.0000 </r>
       <r>   15.0509    0.0000 </r>
       <r>   15.0509    0.0000 </r>
       <r>   15.5364    0.0000 </r>
       <r>   16.5100    0.0000 </r>
       <r>   16.5100    0.0000 </r>
       <r>   16.5100    0.0000 </r>
       <r>   17.4779    0.0000 </r>
       <r>   17.4779    0.0000 </r>
       <r>   17.4779    0.0000 </r>
       <r>   17.5782    0.0000 </r>
      </set>
      <set comment="kpoint 2">
       <r>  -95.8562    1.0000 </r>
       <r>  -95.8555    1.0000 </r>
       <r>  -95.8552    1.0000 </r>
       <r>  -95.8539    1.0000 </r>
       <r>  -95.8537    1.0000 </r>
       <r>  -95.8531    1.0000 </r>
       <r>   -7.8462    1.0000 </r>
       <r>   -5.7359    1.0000 </r>
       <r>   -5.2156    1.0000 </r>
       <r>   -5.2156    1.0000 </r>
       <r>   -1.6778    1.0000 </r>
       <r>   -1.2629    1.0000 </r>
       <r>    0.0420    1.0000 </r>
       <r>    0.2879    1.0000 </r>
       <r>    0.2879    1.0000 </r>
       <r>    1.1050    1.0000 </r>
       <r>    1.8450    1.0000 </r>
       <r>    2.1407    1.0000 </r>
       <r>    2.1407    1.0000 </r>
       <r>    4.5975    1.0000 </r>
       <r>    4.5975    1.0000 </r>
       <r>    4.7097    1.0000 </r>
       <r>    5.8853    0.0000 </r>
       <r>    6.0988    0.0000 </r>
       <r>    6.5063    0.0000 </r>
       <r>    6.6525    0.0000 </r>
       <r>    6.6525    0.0000 </r>
       <r>    7.6166    0.0000 </r>
       <r>    8.6264    0.0000 </r>
       <r>    8.6264    0.0000 </r>
       <r>    8.8953    0.0000 </r>
       <r>   11.3773    0.0000 </r>
       <r>   12.5157    0.0000 </r>
       <r>   12.6601    0.0000 </r>
       <r>   13.0944    0.0000 </r>
       <r>   13.0944    0.0000 </r>
       <r>   14.5120    0.0000 </r>
       <r>   14.5121    0.0000 </r>
       <r>   15.1386    0.0000 </r>
       <r>   15.1387    0.0000 </r>
       <r>   15.2621    0.0000 </r>
       <r>   15.6591    0.0000 </r>
       <r>   16.0071    0.0000 </r>
       <r>   16.6810    0.0000 </r>
       <r>   16.9688    0.0000 </r>
       <r>   16.9690    0.0000 </r>
       <r>   18.5067    0.0000 </r>
       <r>   18.6265    0.0000 </r>
      </set>
      <set comment="kpoint 3">
       <r>  -95.8559    1.0000 </r>
       <r>  -95.8557    1.0000 </r>
       <r>  -95.8548    1.0000 </r>
       <r>  -95.8543    1.0000 </r>
       <r>  -95.8535    1.0000 </r>
       <r>  -95.8533    1.0000 </r>
       <r>   -7.3603    1.0000 </r>
       <r>   -6.6053    1.0000 </r>
       <r>   -5.1485    1.0000 </r>
       <r>   -5.1486    1.0000 </r>
       <r>   -1.2655    1.0000 </r>
       <r>   -0.6383    1.0000 </r>
       <r>   -0.2154    1.0000 </r>
       <r>    0.0666    1.0000 </r>
       <r>    0.0666    1.0000 </r>
       <r>    0.8525    1.0000 </r>
       <r>    2.0111    1.0000 </r>
       <r>    2.1615    1.0000 </r>
       <r>    2.1615    1.0000 </r>
       <r>    3.3425    1.0000 </r>
       <r>    3.6757    1.0000 </r>
       <r>    3.6757    1.0000 </r>
       <r>    6.4173    0.0000 </r>
       <r>    6.4291    0.0000 </r>
       <r>    7.8246    0.0000 </r>
       <r>    8.1438    0.0000 </r>
       <r>    8.7377    0.0000 </r>
       <r>    8.7377    0.0000 </r>
       <r>    8.9526    0.0000 </r>
       <r>   10.1925    0.0000 </r>
       <r>   10.1925    0.0000 </r>
       <r>   10.2881    0.0000 </r>
       <r>   11.2247    0.0000 </r>
       <r>   11.2247    0.0000 </r>
       <r>   11.3172    0.0000 </r>
       <r>   12.6863    0.0000 </r>
       <r>   12.6863    0.0000 </r>
       <r>   13.3818    0.0000 </r>
       <r>   14.0721    0.0000 </r>
       <r>   15.7320    0.0000 </r>
       <r>   15.7321    0.0000 </r>
       <r>   15.8881    0.0000 </r>
       <r>   16.3319    0.0000 </r>
       <r>   16.5577    0.0000 </r>
       <r>   16.5579    0.0000 </r>
       <r>   16.6201    0.0000 </r>
       <r>   17.1762    0.0000 </r>
       <r>   17.8534    0.0000 </r>
      </set>
      <set comment="kpoint 4">
       <r>  -95.8561    1.0000 </r>
       <r>  -95.8554    1.0000 </r>
       <r>  -95.8552    1.0000 </r>
       <r>  -95.8540    1.0000 </r>
       <r>  -95.8538    1.0000 </r>
       <r>  -95.8532    1.0000 </r>
       <r>   -7.6833    1.0000 </r>
       <r>   -5.7223    1.0000 </r>
       <r>   -5.5803    1.0000 </r>
       <r>   -5.2178    1.0000 </r>
       <r>   -1.3545    1.0000 </r>
       <r>   -1.1244    1.0000 </r>
       <r>   -0.4559    1.0000 </r>
       <r>    0.4467    1.0000 </r>
       <r>    0.4833    1.0000 </r>
       <r>    1.1289    1.0000 </r>
       <r>    1.4569    1.0000 </r>
       <r>    2.1094    1.0000 </r>
       <r>    2.3109    1.0000 </r>
       <r>    3.4259    1.0000 </r>
       <r>    4.0553    1.0000 </r>
       <r>    5.2890    1.0000 </r>
       <r>    6.1329    0.0000 </r>
       <r>    6.6081    0.0000 </r>
       <r>    6.6224    0.0000 </r>
       <r>    7.0691    0.0000 </r>
       <r>    7.5494    0.0000 </r>
       <r>    8.1357    0.0000 </r>
       <r>    8.7324    0.0000 </r>
       <r>    8.8643    0.0000 </r>
       <r>    9.5764    0.0000 </r>
       <r>   11.4257    0.0000 </r>
       <r>   12.0128    0.0000 </r>
       <r>   12.1213    0.0000 </r>
       <r>   12.3568    0.0000 </r>
       <r>   12.8035    0.0000 </r>
       <r>   13.9585    0.0000 </r>
       <r>   13.9851    0.0000 </r>
       <r>   14.4332    0.0000 </r>
       <r>   14.8014    0.0000 </r>
       <r>   15.0166    0.0000 </r>
       <r>   16.0329    0.0000 </r>
       <r>   16.1642    0.0000 </r>
       <r>   16.5105    0.0000 </r>
       <r>   16.6376    0.0000 </r>
       <r>   17.0064    0.0000 </r>
       <r>   17.2427    0.0000 </r>
       <r>   17.2896    0.0000 </r>
      </set>
      <set comment="kpoint 5">
       <r>  -95.8558    1.0000 </r>
       <r>  -95.8556    1.0000 </r>
       <r>  -95.8548    1.0000 </r>
       <r>  -95.8543    1.0000 </r>
       <r>  -95.8536    1.0000 </r>
       <r>  -95.8534    1.0000 </r>
       <r>   -7.2091    1.0000 </r>
       <r>   -6.4815    1.0000 </r>
       <r>   -5.4466    1.0000 </r>
       <r>   -5.2777    1.0000 </r>
       <r>   -1.1466    1.0000 </r>
       <r>   -0.9557    1.0000 </r>
       <r>   -0.5313    1.0000 </r>
       <r>    0.1427    1.0000 </r>
       <r>    0.8801    1.0000 </r>
       <r>    1.1454    1.0000 </r>
       <r>    1.3394    1.0000 </r>
       <r>    1.9907    1.0000 </r>
       <r>    2.3937    1.0000 </r>
       <r>    2.5172    1.0000 </r>
       <r>    3.6429    1.0000 </r>
       <r>    4.5101    1.0000 </r>
       <r>    6.9491    0.0000 </r>
       <r>    7.1568    0.0000 </r>
       <r>    7.4299    0.0000 </r>
       <r>    8.4112    0.0000 </r>
       <r>    8.9261    0.0000 </r>
       <r>    8.9802    0.0000 </r>
       <r>    9.3965    0.0000 </r>
       <r>    9.5035    0.0000 </r>
       <r>    9.9563    0.0000 </r>
       <r>   10.1415    0.0000 </r>
       <r>   11.1555    0.0000 </r>
       <r>   11.3130    0.0000 </r>
       <r>   11.9046    0.0000 </r>
       <r>   12.1204    0.0000 </r>
       <r>   12.4531    0.0000 </r>
       <r>   13.5792    0.0000 </r>
       <r>   14.1953    0.0000 </r>
       <r>   14.7836    0.0000 </r>
       <r>   14.8147    0.0000 </r>
       <r>   15.5692    0.0000 </r>
       <r>   15.6249    0.0000 </r>
       <r>   16.2154    0.0000 </r>
       <r>   16.6750    0.0000 </r>
       <r>   16.7758    0.0000 </r>
       <r>   16.7937    0.0000 </r>
       <r>   16.9058    0.0000 </r>
      </set>
      <set comment="kpoint 6">
       <r>  -95.8556    1.0000 </r>
       <r>  -95.8554    1.0000 </r>
       <r>  -95.8547    1.0000 </r>
       <r>  -95.8545    1.0000 </r>
       <r>  -95.8538    1.0000 </r>
       <r>  -95.8536    1.0000 </r>
       <r>   -6.7784    1.0000 </r>
       <r>   -6.2443    1.0000 </r>
       <r>   -5.9893    1.0000 </r>
       <r>   -5.6403    1.0000 </r>
       <r>   -1.1211    1.0000 </r>
       <r>   -1.0010    1.0000 </r>
       <r>   -0.4042    1.0000 </r>
       <r>    0.2926    1.0000 </r>
       <r>    0.4842    1.0000 </r>
       <r>    0.6887    1.0000 </r>
       <r>    1.8182    1.0000 </r>
       <r>    1.9055    1.0000 </r>
       <r>    2.1383    1.0000 </r>
       <r>    2.5777    1.0000 </r>
       <r>    4.2073    1.0000 </r>
       <r>    4.8199    1.0000 </r>
       <r>    6.8405    0.0000 </r>
       <r>    7.6886    0.0000 </r>
       <r>    8.3174    0.0000 </r>
       <r>    8.5373    0.0000 </r>
       <r>    8.5454    0.0000 </r>
       <r>    9.0320    0.0000 </r>
       <r>    9.7778    0.0000 </r>
       <r>    9.9079    0.0000 </r>
       <r>    9.9670    0.0000 </r>
       <r>   10.9355    0.0000 </r>
       <r>   11.1257    0.0000 </r>
       <r>   11.2736    0.0000 </r>
       <r>   11.6984    0.0000 </r>
       <r>   11.9719    0.0000 </r>
       <r>   12.2927    0.0000 </r>
       <r>   12.8697    0.0000 </r>
       <r>   13.1737    0.0000 </r>
       <r>   13.8078    0.0000 </r>
       <r>   14.1033    0.0000 </r>
       <r>   14.5242    0.0000 </r>
       <r>   15.4893    0.0000 </r>
       <r>   15.7065    0.0000 </r>
       <r>   16.1294    0.0000 </r>
       <r>   16.2932    0.0000 </r>
       <r>   16.8309    0.0000 </r>
       <r>   17.4080    0.0000 </r>
      </set>
      <set comment="kpoint 7">
       <r>  -95.8560    1.0000 </r>
       <r>  -95.8553    1.0000 </r>
       <r>  -95.8553    1.0000 </r>
       <r>  -95.8539    1.0000 </r>
       <r>  -95.8539    1.0000 </r>
       <r>  -95.8533    1.0000 </r>
       <r>   -7.5246    1.0000 </r>
       <r>   -5.6692    1.0000 </r>
       <r>   -5.6692    1.0000 </r>
       <r>   -5.4488    1.0000 </r>
       <r>   -1.3401    1.0000 </r>
       <r>   -1.3401    1.0000 </r>
       <r>    0.0869    1.0000 </r>
       <r>    0.0869    1.0000 </r>
       <r>    0.3623    1.0000 </r>
       <r>    0.9367    1.0000 </r>
       <r>    1.6842    1.0000 </r>
       <r>    2.4280    1.0000 </r>
       <r>    2.4280    1.0000 </r>
       <r>    2.7115    1.0000 </r>
       <r>    4.7263    1.0000 </r>
       <r>    4.7263    1.0000 </r>
       <r>    6.1587    0.0000 </r>
       <r>    6.1587    0.0000 </r>
       <r>    7.0850    0.0000 </r>
       <r>    7.9735    0.0000 </r>
       <r>    7.9735    0.0000 </r>
       <r>    8.6769    0.0000 </r>
       <r>    8.8794    0.0000 </r>
       <r>    8.8794    0.0000 </r>
       <r>   10.1977    0.0000 </r>
       <r>   10.9069    0.0000 </r>
       <r>   11.8267    0.0000 </r>
       <r>   11.8267    0.0000 </r>
       <r>   12.7049    0.0000 </r>
       <r>   12.7250    0.0000 </r>
       <r>   12.7250    0.0000 </r>
       <r>   13.2594    0.0000 </r>
       <r>   13.2594    0.0000 </r>
       <r>   14.8085    0.0000 </r>
       <r>   15.8657    0.0000 </r>
       <r>   15.9019    0.0000 </r>
       <r>   16.2314    0.0000 </r>
       <r>   16.2314    0.0000 </r>
       <r>   16.6436    0.0000 </r>
       <r>   16.9256    0.0000 </r>
       <r>   17.3692    0.0000 </r>
       <r>   17.3692    0.0000 </r>
      </set>
      <set comment="kpoint 8">
       <r>  -95.8557    1.0000 </r>
       <r>  -95.8554    1.0000 </r>
       <r>  -95.8548    1.0000 </r>
       <r>  -95.8543    1.0000 </r>
       <r>  -95.8538    1.0000 </r>
       <r>  -95.8535    1.0000 </r>
       <r>   -7.0658    1.0000 </r>
       <r>   -6.3728    1.0000 </r>
       <r>   -5.5760    1.0000 </r>
       <r>   -5.4058    1.0000 </r>
       <r>   -1.7136    1.0000 </r>
       <r>   -1.2719    1.0000 </r>
       <r>   -0.1593    1.0000 </r>
       <r>    0.0986    1.0000 </r>
       <r>    1.0842    1.0000 </r>
       <r>    1.1587    1.0000 </r>
       <r>    1.2228    1.0000 </r>
       <r>    2.0628    1.0000 </r>
       <r>    2.4379    1.0000 </r>
       <r>    3.1623    1.0000 </r>
       <r>    4.0347    1.0000 </r>
       <r>    4.4323    1.0000 </r>
       <r>    6.6327    0.0000 </r>
       <r>    7.1171    0.0000 </r>
       <r>    7.7289    0.0000 </r>
       <r>    8.1854    0.0000 </r>
       <r>    9.0183    0.0000 </r>
       <r>    9.1743    0.0000 </r>
       <r>    9.1866    0.0000 </r>
       <r>    9.5246    0.0000 </r>
       <r>   10.2560    0.0000 </r>
       <r>   10.5417    0.0000 </r>
       <r>   10.7560    0.0000 </r>
       <r>   11.0875    0.0000 </r>
       <r>   11.5546    0.0000 </r>
       <r>   12.3601    0.0000 </r>
       <r>   12.5422    0.0000 </r>
       <r>   13.7745    0.0000 </r>
       <r>   13.9811    0.0000 </r>
       <r>   14.4272    0.0000 </r>
       <r>   14.4973    0.0000 </r>
       <r>   15.1787    0.0000 </r>
       <r>   15.6902    0.0000 </r>
       <r>   16.0227    0.0000 </r>
       <r>   16.3988    0.0000 </r>
       <r>   16.7542    0.0000 </r>
       <r>   17.1070    0.0000 </r>
       <r>   17.4916    0.0000 </r>
      </set>
      <set comment="kpoint 9">
       <r>  -95.8554    1.0000 </r>
       <r>  -95.8553    1.0000 </r>
       <r>  -95.8548    1.0000 </r>
       <r>  -95.8544    1.0000 </r>
       <r>  -95.8539    1.0000 </r>
       <r>  -95.8538    1.0000 </r>
       <r>   -6.6648    1.0000 </r>
       <r>   -6.1828    1.0000 </r>
       <r>   -5.9759    1.0000 </r>
       <r>   -5.6284    1.0000 </r>
       <r>   -1.8591    1.0000 </r>
       <r>   -1.6530    1.0000 </r>
       <r>   -1.0170    1.0000 </r>
       <r>    0.4600    1.0000 </r>
       <r>    0.9065    1.0000 </r>
       <r>    1.2998    1.0000 </r>
       <r>    2.0573    1.0000 </r>
       <r>    2.1828    1.0000 </r>
       <r>    2.7369    1.0000 </r>
       <r>    3.3473    1.0000 </r>
       <r>    4.3602    1.0000 </r>
       <r>    4.8086    1.0000 </r>
       <r>    6.8169    0.0000 </r>
       <r>    7.2071    0.0000 </r>
       <r>    7.7823    0.0000 </r>
       <r>    8.2762    0.0000 </r>
       <r>    8.3136    0.0000 </r>
       <r>    8.5318    0.0000 </r>
       <r>    9.2088    0.0000 </r>
       <r>    9.6379    0.0000 </r>
       <r>    9.9559    0.0000 </r>
       <r>   10.8700    0.0000 </r>
       <r>   10.8947    0.0000 </r>
       <r>   11.5780    0.0000 </r>
       <r>   11.7260    0.0000 </r>
       <r>   12.5108    0.0000 </r>
       <r>   12.7370    0.0000 </r>
       <r>   13.0653    0.0000 </r>
       <r>   13.8429    0.0000 </r>
       <r>   14.2169    0.0000 </r>
       <r>   14.7471    0.0000 </r>
       <r>   14.9692    0.0000 </r>
       <r>   15.1539    0.0000 </r>
       <r>   15.7832    0.0000 </r>
       <r>   15.8836    0.0000 </r>
       <r>   16.2310    0.0000 </r>
       <r>   16.5919    0.0000 </r>
       <r>   17.1783    0.0000 </r>
      </set>
      <set comment="kpoint 10">
       <r>  -95.8551    1.0000 </r>
       <r>  -95.8549    1.0000 </r>
       <r>  -95.8549    1.0000 </r>
       <r>  -95.8543    1.0000 </r>
       <r>  -95.8543    1.0000 </r>
       <r>  -95.8541    1.0000 </r>
       <r>   -6.3753    1.0000 </r>
       <r>   -6.0729    1.0000 </r>
       <r>   -6.0729    1.0000 </r>
       <r>   -5.5934    1.0000 </r>
       <r>   -2.2950    1.0000 </r>
       <r>   -2.2950    1.0000 </r>
       <r>   -1.9305    1.0000 </r>
       <r>   -0.2533    1.0000 </r>
       <r>    2.2264    1.0000 </r>
       <r>    2.2264    1.0000 </r>
       <r>    2.3267    1.0000 </r>
       <r>    2.9367    1.0000 </r>
       <r>    2.9367    1.0000 </r>
       <r>    4.4824    1.0000 </r>
       <r>    4.8361    1.0000 </r>
       <r>    4.8361    1.0000 </r>
       <r>    6.7438    0.0000 </r>
       <r>    6.7438    0.0000 </r>
       <r>    7.3784    0.0000 </r>
       <r>    7.7962    0.0000 </r>
       <r>    7.8743    0.0000 </r>
       <r>    7.8743    0.0000 </r>
       <r>    8.4604    0.0000 </r>
       <r>    8.4604    0.0000 </r>
       <r>    9.7283    0.0000 </r>
       <r>   10.4103    0.0000 </r>
       <r>   10.4103    0.0000 </r>
       <r>   11.4429    0.0000 </r>
       <r>   12.9966    0.0000 </r>
       <r>   13.2190    0.0000 </r>
       <r>   13.2190    0.0000 </r>
       <r>   14.2708    0.0000 </r>
       <r>   14.2708    0.0000 </r>
       <r>   14.4728    0.0000 </r>
       <r>   14.8137    0.0000 </r>
       <r>   14.8137    0.0000 </r>
       <r>   15.8472    0.0000 </r>
       <r>   16.2746    0.0000 </r>
       <r>   16.7488    0.0000 </r>
       <r>   16.7563    0.0000 </r>
       <r>   17.2272    0.0000 </r>
       <r>   17.5647    0.0000 </r>
      </set>
     </set>
     <set comment="spin 2">
      <set comment="kpoint 1">
       <r>  -95.8562    1.0000 </r>
       <r>  -95.8553    1.0000 </r>
       <r>  -95.8553    1.0000 </r>
       <r>  -95.8537    1.0000 </r>
       <r>  -95.8537    1.0000 </r>
       <r>  -95.8529    1.0000 </r>
       <r>   -8.0122    1.0000 </r>
       <r>   -5.2549    1.0000 </r>
       <r>   -5.2549    1.0000 </r>
       <r>   -5.2549    1.0000 </r>
       <r>   -1.8197    1.0000 </r>
       <r>   -1.8197    1.0000 </r>
       <r>    0.3806    1.0000 </r>
       <r>    0.3806    1.0000 </r>
       <r>    0.3806    1.0000 </r>
       <r>    0.8026    1.0000 </r>
       <r>    2.3431    1.0000 </r>
       <r>    2.3431    1.0000 </r>
       <r>    2.3431    1.0000 </r>
       <r>    5.4146    0.9980 </r>
       <r>    5.4146    0.9980 </r>
       <r>    5.4146    0.9980 </r>
       <r>    5.6183    0.0020 </r>
       <r>    5.6183    0.0020 </r>
       <r>    5.6183    0.0020 </r>
       <r>    5.8433    0.0000 </r>
       <r>    5.8433    0.0000 </r>
       <r>    7.6529    0.0000 </r>
       <r>    7.6529    0.0000 </r>
       <r>    7.6529    0.0000 </r>
       <r>    8.3515    0.0000 </r>
       <r>   10.9195    0.0000 </r>
       <r>   13.7231    0.0000 </r>
       <r>   13.7231    0.0000 </r>
       <r>   13.7231    0.0000 </r>
       <r>   14.5912    0.0000 </r>
       <r>   14.5911    0.0000 </r>
       <r>   14.5912    0.0000 </r>
       <r>   15.0509    0.0000 </r>
       <r>   15.0509    0.0000 </r>
       <r>   15.5364    0.0000 </r>
       <r>   16.5101    0.0000 </r>
       <r>   16.5102    0.0000 </r>
       <r>   16.5103    0.0000 </r>
       <r>   17.4780    0.0000 </r>
       <r>   17.4781    0.0000 </r>
       <r>   17.4782    0.0000 </r>
       <r>   17.5783    0.0000 </r>
      </set>
      <set comment="kpoint 2">
       <r>  -95.8561    1.0000 </r>
       <r>  -95.8554    1.0000 </r>
       <r>  -95.8552    1.0000 </r>
       <r>  -95.8538    1.0000 </r>
       <r>  -95.8536    1.0000 </r>
       <r>  -95.8530    1.0000 </r>
       <r>   -7.8461    1.0000 </r>
       <r>   -5.7358    1.0000 </r>
       <r>   -5.2155    1.0000 </r>
       <r>   -5.2155    1.0000 </r>
       <r>   -1.6777    1.0000 </r>
       <r>   -1.2628    1.0000 </r>
       <r>    0.0422    1.0000 </r>
       <r>    0.2880    1.0000 </r>
       <r>    0.2880    1.0000 </r>
       <r>    1.1052    1.0000 </r>
       <r>    1.8451    1.0000 </r>
       <r>    2.1409    1.0000 </r>
       <r>    2.1409    1.0000 </r>
       <r>    4.5977    1.0000 </r>
       <r>    4.5977    1.0000 </r>
       <r>    4.7099    1.0000 </r>
       <r>    5.8853    0.0000 </r>
       <r>    6.0989    0.0000 </r>
       <r>    6.5064    0.0000 </r>
       <r>    6.6526    0.0000 </r>
       <r>    6.6525    0.0000 </r>
       <r>    7.6168    0.0000 </r>
       <r>    8.6266    0.0000 </r>
       <r>    8.6266    0.0000 </r>
       <r>    8.8954    0.0000 </r>
       <r>   11.3773    0.0000 </r>
       <r>   12.5157    0.0000 </r>
       <r>   12.6602    0.0000 </r>
       <r>   13.0944    0.0000 </r>
       <r>   13.0945    0.0000 </r>
       <r>   14.5122    0.0000 </r>
       <r>   14.5122    0.0000 </r>
       <r>   15.1385    0.0000 </r>
       <r>   15.1386    0.0000 </r>
       <r>   15.2621    0.0000 </r>
       <r>   15.6593    0.0000 </r>
       <r>   16.0073    0.0000 </r>
       <r>   16.6810    0.0000 </r>
       <r>   16.9689    0.0000 </r>
       <r>   16.9691    0.0000 </r>
       <r>   18.5069    0.0000 </r>
       <r>   18.6266    0.0000 </r>
      </set>
      <set comment="kpoint 3">
       <r>  -95.8559    1.0000 </r>
       <r>  -95.8556    1.0000 </r>
       <r>  -95.8548    1.0000 </r>
       <r>  -95.8543    1.0000 </r>
       <r>  -95.8535    1.0000 </r>
       <r>  -95.8532    1.0000 </r>
       <r>   -7.3602    1.0000 </r>
       <r>   -6.6052    1.0000 </r>
       <r>   -5.1484    1.0000 </r>
       <r>   -5.1484    1.0000 </r>
       <r>   -1.2654    1.0000 </r>
       <r>   -0.6381    1.0000 </r>
       <r>   -0.2152    1.0000 </r>
       <r>    0.0667    1.0000 </r>
       <r>    0.0667    1.0000 </r>
       <r>    0.8527    1.0000 </r>
       <r>    2.0113    1.0000 </r>
       <r>    2.1617    1.0000 </r>
       <r>    2.1617    1.0000 </r>
       <r>    3.3427    1.0000 </r>
       <r>    3.6759    1.0000 </r>
       <r>    3.6759    1.0000 </r>
       <r>    6.4173    0.0000 </r>
       <r>    6.4292    0.0000 </r>
       <r>    7.8247    0.0000 </r>
       <r>    8.1439    0.0000 </r>
       <r>    8.7377    0.0000 </r>
       <r>    8.7377    0.0000 </r>
       <r>    8.9527    0.0000 </r>
       <r>   10.1927    0.0000 </r>
       <r>   10.1926    0.0000 </r>
       <r>   10.2881    0.0000 </r>
       <r>   11.2248    0.0000 </r>
       <r>   11.2247    0.0000 </r>
       <r>   11.3173    0.0000 </r>
       <r>   12.6864    0.0000 </r>
       <r>   12.6864    0.0000 </r>
       <r>   13.3819    0.0000 </r>
       <r>   14.0722    0.0000 </r>
       <r>   15.7321    0.0000 </r>
       <r>   15.7322    0.0000 </r>
       <r>   15.8881    0.0000 </r>
       <r>   16.3320    0.0000 </r>
       <r>   16.5577    0.0000 </r>
       <r>   16.5579    0.0000 </r>
       <r>   16.6202    0.0000 </r>
       <r>   17.1763    0.0000 </r>
       <r>   17.8538    0.0000 </r>
      </set>
      <set comment="kpoint 4">
       <r>  -95.8560    1.0000 </r>
       <r>  -95.8553    1.0000 </r>
       <r>  -95.8551    1.0000 </r>
       <r>  -95.8539    1.0000 </r>
       <r>  -95.8537    1.0000 </r>
       <r>  -95.8531    1.0000 </r>
       <r>   -7.6832    1.0000 </r>
       <r>   -5.7222    1.0000 </r>
       <r>   -5.5802    1.0000 </r>
       <r>   -5.2177    1.0000 </r>
       <r>   -1.3544    1.0000 </r>
       <r>   -1.1242    1.0000 </r>
       <r>   -0.4558    1.0000 </r>
       <r>    0.4468    1.0000 </r>
       <r>    0.4834    1.0000 </r>
       <r>    1.1291    1.0000 </r>
       <r>    1.4570    1.0000 </r>
       <r>    2.1096    1.0000 </r>
       <r>    2.3111    1.0000 </r>
       <r>    3.4261    1.0000 </r>
       <r>    4.0555    1.0000 </r>
       <r>    5.2892    1.0000 </r>
       <r>    6.1330    0.0000 </r>
       <r>    6.6081    0.0000 </r>
       <r>    6.6225    0.0000 </r>
       <r>    7.0692    0.0000 </r>
       <r>    7.5494    0.0000 </r>
       <r>    8.1358    0.0000 </r>
       <r>    8.7325    0.0000 </r>
       <r>    8.8644    0.0000 </r>
       <r>    9.5765    0.0000 </r>
       <r>   11.4257    0.0000 </r>
       <r>   12.0129    0.0000 </r>
       <r>   12.1213    0.0000 </r>
       <r>   12.3569    0.0000 </r>
       <r>   12.8036    0.0000 </r>
       <r>   13.9585    0.0000 </r>
       <r>   13.9851    0.0000 </r>
       <r>   14.4333    0.0000 </r>
       <r>   14.8014    0.0000 </r>
       <r>   15.0167    0.0000 </r>
       <r>   16.0330    0.0000 </r>
       <r>   16.1645    0.0000 </r>
       <r>   16.5106    0.0000 </r>
       <r>   16.6377    0.0000 </r>
       <r>   17.0065    0.0000 </r>
       <r>   17.2428    0.0000 </r>
       <r>   17.2898    0.0000 </r>
      </set>
      <set comment="kpoint 5">
       <r>  -95.8557    1.0000 </r>
       <r>  -95.8555    1.0000 </r>
       <r>  -95.8548    1.0000 </r>
       <r>  -95.8543    1.0000 </r>
       <r>  -95.8536    1.0000 </r>
       <r>  -95.8533    1.0000 </r>
       <r>   -7.2090    1.0000 </r>
       <r>   -6.4814    1.0000 </r>
       <r>   -5.4465    1.0000 </r>
       <r>   -5.2776    1.0000 </r>
       <r>   -1.1465    1.0000 </r>
       <r>   -0.9555    1.0000 </r>
       <r>   -0.5311    1.0000 </r>
       <r>    0.1428    1.0000 </r>
       <r>    0.8803    1.0000 </r>
       <r>    1.1455    1.0000 </r>
       <r>    1.3395    1.0000 </r>
       <r>    1.9908    1.0000 </r>
       <r>    2.3939    1.0000 </r>
       <r>    2.5174    1.0000 </r>
       <r>    3.6431    1.0000 </r>
       <r>    4.5103    1.0000 </r>
       <r>    6.9492    0.0000 </r>
       <r>    7.1568    0.0000 </r>
       <r>    7.4300    0.0000 </r>
       <r>    8.4113    0.0000 </r>
       <r>    8.9262    0.0000 </r>
       <r>    8.9803    0.0000 </r>
       <r>    9.3965    0.0000 </r>
       <r>    9.5036    0.0000 </r>
       <r>    9.9565    0.0000 </r>
       <r>   10.1415    0.0000 </r>
       <r>   11.1555    0.0000 </r>
       <r>   11.3130    0.0000 </r>
       <r>   11.9047    0.0000 </r>
       <r>   12.1205    0.0000 </r>
       <r>   12.4533    0.0000 </r>
       <r>   13.5792    0.0000 </r>
       <r>   14.1954    0.0000 </r>
       <r>   14.7836    0.0000 </r>
       <r>   14.8147    0.0000 </r>
       <r>   15.5691    0.0000 </r>
       <r>   15.6250    0.0000 </r>
       <r>   16.2155    0.0000 </r>
       <r>   16.6766    0.0000 </r>
       <r>   16.7769    0.0000 </r>
       <r>   16.7933    0.0000 </r>
       <r>   16.9062    0.0000 </r>
      </set>
      <set comment="kpoint 6">
       <r>  -95.8555    1.0000 </r>
       <r>  -95.8554    1.0000 </r>
       <r>  -95.8547    1.0000 </r>
       <r>  -95.8544    1.0000 </r>
       <r>  -95.8537    1.0000 </r>
       <r>  -95.8536    1.0000 </r>
       <r>   -6.7783    1.0000 </r>
       <r>   -6.2442    1.0000 </r>
       <r>   -5.9892    1.0000 </r>
       <r>   -5.6401    1.0000 </r>
       <r>   -1.1210    1.0000 </r>
       <r>   -1.0009    1.0000 </r>
       <r>   -0.4040    1.0000 </r>
       <r>    0.2927    1.0000 </r>
       <r>    0.4843    1.0000 </r>
       <r>    0.6889    1.0000 </r>
       <r>    1.8184    1.0000 </r>
       <r>    1.9056    1.0000 </r>
       <r>    2.1385    1.0000 </r>
       <r>    2.5778    1.0000 </r>
       <r>    4.2075    1.0000 </r>
       <r>    4.8201    1.0000 </r>
       <r>    6.8405    0.0000 </r>
       <r>    7.6887    0.0000 </r>
       <r>    8.3175    0.0000 </r>
       <r>    8.5373    0.0000 </r>
       <r>    8.5455    0.0000 </r>
       <r>    9.0321    0.0000 </r>
       <r>    9.7779    0.0000 </r>
       <r>    9.9080    0.0000 </r>
       <r>    9.9670    0.0000 </r>
       <r>   10.9356    0.0000 </r>
       <r>   11.1258    0.0000 </r>
       <r>   11.2736    0.0000 </r>
       <r>   11.6985    0.0000 </r>
       <r>   11.9720    0.0000 </r>
       <r>   12.2928    0.0000 </r>
       <r>   12.8698    0.0000 </r>
       <r>   13.1738    0.0000 </r>
       <r>   13.8079    0.0000 </r>
       <r>   14.1033    0.0000 </r>
       <r>   14.5243    0.0000 </r>
       <r>   15.4893    0.0000 </r>
       <r>   15.7065    0.0000 </r>
       <r>   16.1294    0.0000 </r>
       <r>   16.2933    0.0000 </r>
       <r>   16.8312    0.0000 </r>
       <r>   17.4085    0.0000 </r>
      </set>
      <set comment="kpoint 7">
       <r>  -95.8559    1.0000 </r>
       <r>  -95.8552    1.0000 </r>
       <r>  -95.8552    1.0000 </r>
       <r>  -95.8538    1.0000 </r>
       <r>  -95.8538    1.0000 </r>
       <r>  -95.8532    1.0000 </r>
       <r>   -7.5245    1.0000 </r>
       <r>   -5.6691    1.0000 </r>
       <r>   -5.6691    1.0000 </r>
       <r>   -5.4487    1.0000 </r>
       <r>   -1.3399    1.0000 </r>
       <r>   -1.3399    1.0000 </r>
       <r>    0.0870    1.0000 </r>
       <r>    0.0870    1.0000 </r>
       <r>    0.3625    1.0000 </r>
       <r>    0.9368    1.0000 </r>
       <r>    1.6843    1.0000 </r>
       <r>    2.4282    1.0000 </r>
       <r>    2.4282    1.0000 </r>
       <r>    2.7117    1.0000 </r>
       <r>    4.7265    1.0000 </r>
       <r>    4.7265    1.0000 </r>
       <r>    6.1588    0.0000 </r>
       <r>    6.1588    0.0000 </r>
       <r>    7.0850    0.0000 </r>
       <r>    7.9736    0.0000 </r>
       <r>    7.9736    0.0000 </r>
       <r>    8.6770    0.0000 </r>
       <r>    8.8795    0.0000 </r>
       <r>    8.8795    0.0000 </r>
       <r>   10.1978    0.0000 </r>
       <r>   10.9070    0.0000 </r>
       <r>   11.8267    0.0000 </r>
       <r>   11.8267    0.0000 </r>
       <r>   12.7049    0.0000 </r>
       <r>   12.7251    0.0000 </r>
       <r>   12.7251    0.0000 </r>
       <r>   13.2595    0.0000 </r>
       <r>   13.2595    0.0000 </r>
       <r>   14.8086    0.0000 </r>
       <r>   15.8658    0.0000 </r>
       <r>   15.9020    0.0000 </r>
       <r>   16.2316    0.0000 </r>
       <r>   16.2316    0.0000 </r>
       <r>   16.6438    0.0000 </r>
       <r>   16.9258    0.0000 </r>
       <r>   17.3692    0.0000 </r>
       <r>   17.3692    0.0000 </r>
      </set>
      <set comment="kpoint 8">
       <r>  -95.8556    1.0000 </r>
       <r>  -95.8554    1.0000 </r>
       <r>  -95.8548    1.0000 </r>
       <r>  -95.8543    1.0000 </r>
       <r>  -95.8537    1.0000 </r>
       <r>  -95.8534    1.0000 </r>
       <r>   -7.0656    1.0000 </r>
       <r>   -6.3727    1.0000 </r>
       <r>   -5.5759    1.0000 </r>
       <r>   -5.4057    1.0000 </r>
       <r>   -1.7135    1.0000 </r>
       <r>   -1.2718    1.0000 </r>
       <r>   -0.1592    1.0000 </r>
       <r>    0.0987    1.0000 </r>
       <r>    1.0844    1.0000 </r>
       <r>    1.1588    1.0000 </r>
       <r>    1.2230    1.0000 </r>
       <r>    2.0630    1.0000 </r>
       <r>    2.4381    1.0000 </r>
       <r>    3.1625    1.0000 </r>
       <r>    4.0349    1.0000 </r>
       <r>    4.4325    1.0000 </r>
       <r>    6.6327    0.0000 </r>
       <r>    7.1172    0.0000 </r>
       <r>    7.7291    0.0000 </r>
       <r>    8.1855    0.0000 </r>
       <r>    9.0183    0.0000 </r>
       <r>    9.1744    0.0000 </r>
       <r>    9.1867    0.0000 </r>
       <r>    9.5247    0.0000 </r>
       <r>   10.2560    0.0000 </r>
       <r>   10.5418    0.0000 </r>
       <r>   10.7561    0.0000 </r>
       <r>   11.0875    0.0000 </r>
       <r>   11.5547    0.0000 </r>
       <r>   12.3602    0.0000 </r>
       <r>   12.5422    0.0000 </r>
       <r>   13.7745    0.0000 </r>
       <r>   13.9812    0.0000 </r>
       <r>   14.4273    0.0000 </r>
       <r>   14.4974    0.0000 </r>
       <r>   15.1787    0.0000 </r>
       <r>   15.6904    0.0000 </r>
       <r>   16.0227    0.0000 </r>
       <r>   16.3989    0.0000 </r>
       <r>   16.7542    0.0000 </r>
       <r>   17.1073    0.0000 </r>
       <r>   17.4912    0.0000 </r>
      </set>
      <set comment="kpoint 9">
       <r>  -95.8554    1.0000 </r>
       <r>  -95.8552    1.0000 </r>
       <r>  -95.8547    1.0000 </r>
       <r>  -95.8544    1.0000 </r>
       <r>  -95.8538    1.0000 </r>
       <r>  -95.8537    1.0000 </r>
       <r>   -6.6646    1.0000 </r>
       <r>   -6.1827    1.0000 </r>
       <r>   -5.9758    1.0000 </r>
       <r>   -5.6283    1.0000 </r>
       <r>   -1.8590    1.0000 </r>
       <r>   -1.6529    1.0000 </r>
       <r>   -1.0169    1.0000 </r>
       <r>    0.4601    1.0000 </r>
       <r>    0.9066    1.0000 </r>
       <r>    1.2999    1.0000 </r>
       <r>    2.0575    1.0000 </r>
       <r>    2.1829    1.0000 </r>
       <r>    2.7371    1.0000 </r>
       <r>    3.3475    1.0000 </r>
       <r>    4.3604    1.0000 </r>
       <r>    4.8088    1.0000 </r>
       <r>    6.8169    0.0000 </r>
       <r>    7.2072    0.0000 </r>
       <r>    7.7824    0.0000 </r>
       <r>    8.2763    0.0000 </r>
       <r>    8.3138    0.0000 </r>
       <r>    8.5319    0.0000 </r>
       <r>    9.2089    0.0000 </r>
       <r>    9.6380    0.0000 </r>
       <r>    9.9560    0.0000 </r>
       <r>   10.8701    0.0000 </r>
       <r>   10.8948    0.0000 </r>
       <r>   11.5780    0.0000 </r>
       <r>   11.7261    0.0000 </r>
       <r>   12.5109    0.0000 </r>
       <r>   12.7371    0.0000 </r>
       <r>   13.0653    0.0000 </r>
       <r>   13.8429    0.0000 </r>
       <r>   14.2169    0.0000 </r>
       <r>   14.7471    0.0000 </r>
       <r>   14.9692    0.0000 </r>
       <r>   15.1540    0.0000 </r>
       <r>   15.7833    0.0000 </r>
       <r>   15.8837    0.0000 </r>
       <r>   16.2312    0.0000 </r>
       <r>   16.5920    0.0000 </r>
       <r>   17.1785    0.0000 </r>
      </set>
      <set comment="kpoint 10">
       <r>  -95.8550    1.0000 </r>
       <r>  -95.8548    1.0000 </r>
       <r>  -95.8548    1.0000 </r>
       <r>  -95.8543    1.0000 </r>
       <r>  -95.8543    1.0000 </r>
       <r>  -95.8540    1.0000 </r>
       <r>   -6.3752    1.0000 </r>
       <r>   -6.0728    1.0000 </r>
       <r>   -6.0728    1.0000 </r>
       <r>   -5.5933    1.0000 </r>
       <r>   -2.2949    1.0000 </r>
       <r>   -2.2949    1.0000 </r>
       <r>   -1.9304    1.0000 </r>
       <r>   -0.2531    1.0000 </r>
       <r>    2.2265    1.0000 </r>
       <r>    2.2265    1.0000 </r>
       <r>    2.3268    1.0000 </r>
       <r>    2.9369    1.0000 </r>
       <r>    2.9369    1.0000 </r>
       <r>    4.4826    1.0000 </r>
       <r>    4.8363    1.0000 </r>
       <r>    4.8363    1.0000 </r>
       <r>    6.7438    0.0000 </r>
       <r>    6.7438    0.0000 </r>
       <r>    7.3784    0.0000 </r>
       <r>    7.7963    0.0000 </r>
       <r>    7.8745    0.0000 </r>
       <r>    7.8745    0.0000 </r>
       <r>    8.4605    0.0000 </r>
       <r>    8.4605    0.0000 </r>
       <r>    9.7284    0.0000 </r>
       <r>   10.4103    0.0000 </r>
       <r>   10.4103    0.0000 </r>
       <r>   11.4429    0.0000 </r>
       <r>   12.9966    0.0000 </r>
       <r>   13.2190    0.0000 </r>
       <r>   13.2190    0.0000 </r>
       <r>   14.2709    0.0000 </r>
       <r>   14.2709    0.0000 </r>
       <r>   14.4729    0.0000 </r>
       <r>   14.8138    0.0000 </r>
       <r>   14.8138    0.0000 </r>
       <r>   15.8473    0.0000 </r>
       <r>   16.2748    0.0000 </r>
       <r>   16.7489    0.0000 </r>
       <r>   16.7564    0.0000 </r>
       <r>   17.2271    0.0000 </r>
       <r>   17.5653    0.0000 </r>
      </set>
     </set>
    </set>
   </array>
  </eigenvalues>
  <separator name="orbital magnetization" >
   <v name="MAGDIPOLOUT">      0.00000000      0.00000000      0.00000000</v>
  </separator>
  <dos>
   <i name="efermi">      5.51637363 </i>
   <total>
    <array>
     <dimension dim="1">gridpoints</dimension>
     <dimension dim="2">spin</dimension>
     <field>energy</field>
     <field>total</field>
     <field>integrated</field>
     <set>
      <set comment="spin 1">
       <r>  -101.5804     0.0000     0.0000 </r>
       <r>  -101.1607     0.0000     0.0000 </r>
       <r>  -100.7409     0.0000     0.0000 </r>
       <r>  -100.3211     0.0000     0.0000 </r>
       <r>   -99.9014     0.0000     0.0000 </r>
       <r>   -99.4816     0.0000     0.0000 </r>
       <r>   -99.0618     0.0000     0.0000 </r>
       <r>   -98.6420     0.0000     0.0000 </r>
       <r>   -98.2223     0.0000     0.0000 </r>
       <r>   -97.8025     0.0000     0.0000 </r>
       <r>   -97.3827     0.0000     0.0000 </r>
       <r>   -96.9630     0.0000     0.0000 </r>
       <r>   -96.5432     0.0000     0.0000 </r>
       <r>   -96.1234     0.0000     0.0000 </r>
       <r>   -95.7037    14.2934     5.9999 </r>
       <r>   -95.2839     0.0000     6.0000 </r>
       <r>   -94.8641     0.0000     6.0000 </r>
       <r>   -94.4443     0.0000     6.0000 </r>
       <r>   -94.0246     0.0000     6.0000 </r>
       <r>   -93.6048     0.0000     6.0000 </r>
       <r>   -93.1850     0.0000     6.0000 </r>
       <r>   -92.7653     0.0000     6.0000 </r>
       <r>   -92.3455     0.0000     6.0000 </r>
       <r>   -91.9257     0.0000     6.0000 </r>
       <r>   -91.5059     0.0000     6.0000 </r>
       <r>   -91.0862     0.0000     6.0000 </r>
       <r>   -90.6664     0.0000     6.0000 </r>
       <r>   -90.2466     0.0000     6.0000 </r>
       <r>   -89.8269     0.0000     6.0000 </r>
       <r>   -89.4071     0.0000     6.0000 </r>
       <r>   -88.9873     0.0000     6.0000 </r>
       <r>   -88.5676     0.0000     6.0000 </r>
       <r>   -88.1478     0.0000     6.0000 </r>
       <r>   -87.7280     0.0000     6.0000 </r>
       <r>   -87.3082     0.0000     6.0000 </r>
       <r>   -86.8885     0.0000     6.0000 </r>
       <r>   -86.4687     0.0000     6.0000 </r>
       <r>   -86.0489     0.0000     6.0000 </r>
       <r>   -85.6292     0.0000     6.0000 </r>
       <r>   -85.2094     0.0000     6.0000 </r>
       <r>   -84.7896     0.0000     6.0000 </r>
       <r>   -84.3698     0.0000     6.0000 </r>
       <r>   -83.9501     0.0000     6.0000 </r>
       <r>   -83.5303     0.0000     6.0000 </r>
       <r>   -83.1105     0.0000     6.0000 </r>
       <r>   -82.6908     0.0000     6.0000 </r>
       <r>   -82.2710     0.0000     6.0000 </r>
       <r>   -81.8512     0.0000     6.0000 </r>
       <r>   -81.4314     0.0000     6.0000 </r>
       <r>   -81.0117     0.0000     6.0000 </r>
       <r>   -80.5919     0.0000     6.0000 </r>
       <r>   -80.1721     0.0000     6.0000 </r>
       <r>   -79.7524     0.0000     6.0000 </r>
       <r>   -79.3326     0.0000     6.0000 </r>
       <r>   -78.9128     0.0000     6.0000 </r>
       <r>   -78.4931     0.0000     6.0000 </r>
       <r>   -78.0733     0.0000     6.0000 </r>
       <r>   -77.6535     0.0000     6.0000 </r>
       <r>   -77.2337     0.0000     6.0000 </r>
       <r>   -76.8140     0.0000     6.0000 </r>
       <r>   -76.3942     0.0000     6.0000 </r>
       <r>   -75.9744     0.0000     6.0000 </r>
       <r>   -75.5547     0.0000     6.0000 </r>
       <r>   -75.1349     0.0000     6.0000 </r>
       <r>   -74.7151     0.0000     6.0000 </r>
       <r>   -74.2953     0.0000     6.0000 </r>
       <r>   -73.8756     0.0000     6.0000 </r>
       <r>   -73.4558     0.0000     6.0000 </r>
       <r>   -73.0360     0.0000     6.0000 </r>
       <r>   -72.6163     0.0000     6.0000 </r>
       <r>   -72.1965     0.0000     6.0000 </r>
       <r>   -71.7767     0.0000     6.0000 </r>
       <r>   -71.3570     0.0000     6.0000 </r>
       <r>   -70.9372     0.0000     6.0000 </r>
       <r>   -70.5174     0.0000     6.0000 </r>
       <r>   -70.0976     0.0000     6.0000 </r>
       <r>   -69.6779     0.0000     6.0000 </r>
       <r>   -69.2581     0.0000     6.0000 </r>
       <r>   -68.8383     0.0000     6.0000 </r>
       <r>   -68.4186     0.0000     6.0000 </r>
       <r>   -67.9988     0.0000     6.0000 </r>
       <r>   -67.5790     0.0000     6.0000 </r>
       <r>   -67.1592     0.0000     6.0000 </r>
       <r>   -66.7395     0.0000     6.0000 </r>
       <r>   -66.3197     0.0000     6.0000 </r>
       <r>   -65.8999     0.0000     6.0000 </r>
       <r>   -65.4802     0.0000     6.0000 </r>
       <r>   -65.0604     0.0000     6.0000 </r>
       <r>   -64.6406     0.0000     6.0000 </r>
       <r>   -64.2208     0.0000     6.0000 </r>
       <r>   -63.8011     0.0000     6.0000 </r>
       <r>   -63.3813     0.0000     6.0000 </r>
       <r>   -62.9615     0.0000     6.0000 </r>
       <r>   -62.5418     0.0000     6.0000 </r>
       <r>   -62.1220     0.0000     6.0000 </r>
       <r>   -61.7022     0.0000     6.0000 </r>
       <r>   -61.2825     0.0000     6.0000 </r>
       <r>   -60.8627     0.0000     6.0000 </r>
       <r>   -60.4429     0.0000     6.0000 </r>
       <r>   -60.0231     0.0000     6.0000 </r>
       <r>   -59.6034     0.0000     6.0000 </r>
       <r>   -59.1836     0.0000     6.0000 </r>
       <r>   -58.7638     0.0000     6.0000 </r>
       <r>   -58.3441     0.0000     6.0000 </r>
       <r>   -57.9243     0.0000     6.0000 </r>
       <r>   -57.5045     0.0000     6.0000 </r>
       <r>   -57.0847     0.0000     6.0000 </r>
       <r>   -56.6650     0.0000     6.0000 </r>
       <r>   -56.2452     0.0000     6.0000 </r>
       <r>   -55.8254     0.0000     6.0000 </r>
       <r>   -55.4057     0.0000     6.0000 </r>
       <r>   -54.9859     0.0000     6.0000 </r>
       <r>   -54.5661     0.0000     6.0000 </r>
       <r>   -54.1464     0.0000     6.0000 </r>
       <r>   -53.7266     0.0000     6.0000 </r>
       <r>   -53.3068     0.0000     6.0000 </r>
       <r>   -52.8870     0.0000     6.0000 </r>
       <r>   -52.4673     0.0000     6.0000 </r>
       <r>   -52.0475     0.0000     6.0000 </r>
       <r>   -51.6277     0.0000     6.0000 </r>
       <r>   -51.2080     0.0000     6.0000 </r>
       <r>   -50.7882     0.0000     6.0000 </r>
       <r>   -50.3684     0.0000     6.0000 </r>
       <r>   -49.9486     0.0000     6.0000 </r>
       <r>   -49.5289     0.0000     6.0000 </r>
       <r>   -49.1091     0.0000     6.0000 </r>
       <r>   -48.6893     0.0000     6.0000 </r>
       <r>   -48.2696     0.0000     6.0000 </r>
       <r>   -47.8498     0.0000     6.0000 </r>
       <r>   -47.4300     0.0000     6.0000 </r>
       <r>   -47.0102     0.0000     6.0000 </r>
       <r>   -46.5905     0.0000     6.0000 </r>
       <r>   -46.1707     0.0000     6.0000 </r>
       <r>   -45.7509     0.0000     6.0000 </r>
       <r>   -45.3312     0.0000     6.0000 </r>
       <r>   -44.9114     0.0000     6.0000 </r>
       <r>   -44.4916     0.0000     6.0000 </r>
       <r>   -44.0719     0.0000     6.0000 </r>
       <r>   -43.6521     0.0000     6.0000 </r>
       <r>   -43.2323     0.0000     6.0000 </r>
       <r>   -42.8125     0.0000     6.0000 </r>
       <r>   -42.3928     0.0000     6.0000 </r>
       <r>   -41.9730     0.0000     6.0000 </r>
       <r>   -41.5532     0.0000     6.0000 </r>
       <r>   -41.1335     0.0000     6.0000 </r>
       <r>   -40.7137     0.0000     6.0000 </r>
       <r>   -40.2939     0.0000     6.0000 </r>
       <r>   -39.8741     0.0000     6.0000 </r>
       <r>   -39.4544     0.0000     6.0000 </r>
       <r>   -39.0346     0.0000     6.0000 </r>
       <r>   -38.6148     0.0000     6.0000 </r>
       <r>   -38.1951     0.0000     6.0000 </r>
[...]
        <r>  0.0573  0.0113  0.0056  0.0048  0.0000  0.0000  0.0000  0.0000  0.0000 </r>
        <r>  0.0635  0.0053  0.0062  0.0126  0.0000  0.0000  0.0000  0.0000  0.0000 </r>
        <r>  0.0573  0.0113  0.0057  0.0047  0.0000  0.0000  0.0000  0.0000  0.0000 </r>
        <r>  0.0019  0.0002  0.0004  0.0002  0.0000  0.0000  0.0000  0.0000  0.0000 </r>
        <r>  0.0635  0.0054  0.0061  0.0126  0.0000  0.0000  0.0000  0.0000  0.0000 </r>
        <r>  0.0020  0.0006  0.0002  0.0011  0.0000  0.0000  0.0000  0.0000  0.0000 </r>
        <r>  0.0688  0.0120  0.0079  0.0051  0.0000  0.0000  0.0000  0.0000  0.0000 </r>
        <r>  0.0620  0.0046  0.0067  0.0113  0.0000  0.0000  0.0000  0.0000  0.0000 </r>
        <r>  0.0000  0.0001  0.0000  0.0002  0.0000  0.0000  0.0000  0.0000  0.0000 </r>
       </set>
       <set comment="band 30">
        <r>  0.0799  0.0072  0.0158  0.0074  0.0000  0.0000  0.0000  0.0000  0.0000 </r>
        <r>  0.0245  0.0049  0.0018  0.0027  0.0000  0.0000  0.0000  0.0000  0.0000 </r>
        <r>  0.0183  0.0022  0.0012  0.0036  0.0000  0.0000  0.0000  0.0000  0.0000 </r>
        <r>  0.0245  0.0049  0.0017  0.0028  0.0000  0.0000  0.0000  0.0000  0.0000 </r>
        <r>  0.0799  0.0073  0.0158  0.0072  0.0000  0.0000  0.0000  0.0000  0.0000 </r>
        <r>  0.0183  0.0020  0.0013  0.0036  0.0000  0.0000  0.0000  0.0000  0.0000 </r>
        <r>  0.0865  0.0126  0.0064  0.0122  0.0000  0.0000  0.0000  0.0000  0.0000 </r>
        <r>  0.0198  0.0012  0.0053  0.0015  0.0000  0.0000  0.0000  0.0000  0.0000 </r>
        <r>  0.0265  0.0020  0.0065  0.0019  0.0000  0.0000  0.0000  0.0000  0.0000 </r>
        <r>  0.0000  0.0001  0.0002  0.0000  0.0000  0.0000  0.0000  0.0000  0.0000 </r>
       </set>
       <set comment="band 31">
        <r>  0.0080  0.0121  0.0029  0.0121  0.0000  0.0000  0.0000  0.0000  0.0000 </r>
        <r>  0.0080  0.0029  0.0121  0.0121  0.0000  0.0000  0.0000  0.0000  0.0000 </r>
        <r>  0.0080  0.0121  0.0121  0.0029  0.0000  0.0000  0.0000  0.0000  0.0000 </r>
        <r>  0.0080  0.0029  0.0121  0.0121  0.0000  0.0000  0.0000  0.0000  0.0000 </r>
        <r>  0.0080  0.0121  0.0029  0.0121  0.0000  0.0000  0.0000  0.0000  0.0000 </r>
        <r>  0.0080  0.0121  0.0121  0.0029  0.0000  0.0000  0.0000  0.0000  0.0000 </r>
        <r>  0.0013  0.0001  0.0011  0.0001  0.0000  0.0000  0.0000  0.0000  0.0000 </r>
        <r>  0.0013  0.0001  0.0001  0.0011  0.0000  0.0000  0.0000  0.0000  0.0000 </r>
        <r>  0.0013  0.0011  0.0001  0.0001  0.0000  0.0000  0.0000  0.0000  0.0000 </r>
        <r>  0.0098  0.0065  0.0065  0.0065  0.0000  0.0000  0.0000  0.0000  0.0000 </r>
       </set>
       <set comment="band 32">
        <r>  0.0002  0.0284  0.0000  0.0267  0.0000  0.0000  0.0000  0.0000  0.0000 </r>
        <r>  0.0054  0.0013  0.0300  0.0003  0.0000  0.0000  0.0000  0.0000  0.0000 </r>
        <r>  0.0060  0.0016  0.0257  0.0014  0.0000  0.0000  0.0000  0.0000  0.0000 </r>
        <r>  0.0054  0.0013  0.0287  0.0016  0.0000  0.0000  0.0000  0.0000  0.0000 </r>
        <r>  0.0002  0.0297  0.0000  0.0254  0.0000  0.0000  0.0000  0.0000  0.0000 </r>
        <r>  0.0060  0.0003  0.0270  0.0014  0.0000  0.0000  0.0000  0.0000  0.0000 </r>
        <r>  0.0002  0.0008  0.0000  0.0006  0.0000  0.0000  0.0000  0.0000  0.0000 </r>
        <r>  0.0087  0.0004  0.0018  0.0017  0.0000  0.0000  0.0000  0.0000  0.0000 </r>
        <r>  0.0078  0.0015  0.0018  0.0002  0.0000  0.0000  0.0000  0.0000  0.0000 </r>
        <r>  0.0000  0.0033  0.0001  0.0036  0.0000  0.0000  0.0000  0.0000  0.0000 </r>
       </set>
       <set comment="band 33">
        <r>  0.0075  0.0091  0.0018  0.0109  0.0000  0.0000  0.0000  0.0000  0.0000 </r>
        <r>  0.0023  0.0005  0.0076  0.0372  0.0000  0.0000  0.0000  0.0000  0.0000 </r>
        <r>  0.0017  0.0359  0.0118  0.0004  0.0000  0.0000  0.0000  0.0000  0.0000 </r>
        <r>  0.0023  0.0005  0.0089  0.0359  0.0000  0.0000  0.0000  0.0000  0.0000 </r>
        <r>  0.0075  0.0079  0.0018  0.0122  0.0000  0.0000  0.0000  0.0000  0.0000 </r>
        <r>  0.0017  0.0372  0.0106  0.0004  0.0000  0.0000  0.0000  0.0000  0.0000 </r>
        <r>  0.0109  0.0011  0.0021  0.0013  0.0000  0.0000  0.0000  0.0000  0.0000 </r>
        <r>  0.0025  0.0015  0.0001  0.0005  0.0000  0.0000  0.0000  0.0000  0.0000 </r>
        <r>  0.0034  0.0007  0.0000  0.0016  0.0000  0.0000  0.0000  0.0000  0.0000 </r>
        <r>  0.0000  0.0014  0.0046  0.0010  0.0000  0.0000  0.0000  0.0000  0.0000 </r>
       </set>
       <set comment="band 34">
        <r>  0.0012  0.0018  0.0041  0.0018  0.0000  0.0000  0.0000  0.0000  0.0000 </r>
        <r>  0.0012  0.0041  0.0018  0.0018  0.0000  0.0000  0.0000  0.0000  0.0000 </r>
        <r>  0.0012  0.0018  0.0018  0.0041  0.0000  0.0000  0.0000  0.0000  0.0000 </r>
        <r>  0.0012  0.0041  0.0018  0.0018  0.0000  0.0000  0.0000  0.0000  0.0000 </r>
        <r>  0.0012  0.0018  0.0041  0.0018  0.0000  0.0000  0.0000  0.0000  0.0000 </r>
        <r>  0.0012  0.0018  0.0018  0.0041  0.0000  0.0000  0.0000  0.0000  0.0000 </r>
        <r>  0.0278  0.0009  0.0000  0.0009  0.0000  0.0000  0.0000  0.0000  0.0000 </r>
        <r>  0.0278  0.0009  0.0009  0.0000  0.0000  0.0000  0.0000  0.0000  0.0000 </r>
        <r>  0.0278  0.0000  0.0009  0.0009  0.0000  0.0000  0.0000  0.0000  0.0000 </r>
        <r>  0.0220  0.0121  0.0121  0.0121  0.0000  0.0000  0.0000  0.0000  0.0000 </r>
       </set>
       <set comment="band 35">
        <r>  0.0141  0.0136  0.0030  0.0136  0.0000  0.0000  0.0000  0.0000  0.0000 </r>
        <r>  0.0141  0.0030  0.0136  0.0136  0.0000  0.0000  0.0000  0.0000  0.0000 </r>
        <r>  0.0141  0.0136  0.0136  0.0030  0.0000  0.0000  0.0000  0.0000  0.0000 </r>
        <r>  0.0141  0.0030  0.0136  0.0136  0.0000  0.0000  0.0000  0.0000  0.0000 </r>
        <r>  0.0141  0.0136  0.0030  0.0136  0.0000  0.0000  0.0000  0.0000  0.0000 </r>
        <r>  0.0141  0.0136  0.0136  0.0030  0.0000  0.0000  0.0000  0.0000  0.0000 </r>
        <r>  0.0021  0.0075  0.0163  0.0075  0.0000  0.0000  0.0000  0.0000  0.0000 </r>
        <r>  0.0021  0.0075  0.0075  0.0163  0.0000  0.0000  0.0000  0.0000  0.0000 </r>
        <r>  0.0021  0.0163  0.0075  0.0075  0.0000  0.0000  0.0000  0.0000  0.0000 </r>
        <r>  0.0025  0.0013  0.0013  0.0013  0.0000  0.0000  0.0000  0.0000  0.0000 </r>
       </set>
       <set comment="band 36">
        <r>  0.0133  0.0097  0.0106  0.0036  0.0000  0.0000  0.0000  0.0000  0.0000 </r>
        <r>  0.0041  0.0033  0.0137  0.0134  0.0000  0.0000  0.0000  0.0000  0.0000 </r>
        <r>  0.0030  0.0090  0.0197  0.0024  0.0000  0.0000  0.0000  0.0000  0.0000 </r>
        <r>  0.0041  0.0033  0.0192  0.0079  0.0000  0.0000  0.0000  0.0000  0.0000 </r>
        <r>  0.0133  0.0043  0.0106  0.0091  0.0000  0.0000  0.0000  0.0000  0.0000 </r>
        <r>  0.0030  0.0145  0.0142  0.0024  0.0000  0.0000  0.0000  0.0000  0.0000 </r>
        <r>  0.0045  0.0042  0.0217  0.0058  0.0000  0.0000  0.0000  0.0000  0.0000 </r>
        <r>  0.0010  0.0196  0.0063  0.0049  0.0000  0.0000  0.0000  0.0000  0.0000 </r>
        <r>  0.0014  0.0067  0.0046  0.0196  0.0000  0.0000  0.0000  0.0000  0.0000 </r>
        <r>  0.0000  0.0021  0.0067  0.0015  0.0000  0.0000  0.0000  0.0000  0.0000 </r>
       </set>
       <set comment="band 37">
        <r>  0.0003  0.0133  0.0002  0.0194  0.0000  0.0000  0.0000  0.0000  0.0000 </r>
        <r>  0.0094  0.0076  0.0094  0.0097  0.0000  0.0000  0.0000  0.0000  0.0000 </r>
        <r>  0.0105  0.0140  0.0034  0.0084  0.0000  0.0000  0.0000  0.0000  0.0000 </r>
        <r>  0.0094  0.0076  0.0039  0.0152  0.0000  0.0000  0.0000  0.0000  0.0000 </r>
        <r>  0.0003  0.0188  0.0002  0.0139  0.0000  0.0000  0.0000  0.0000  0.0000 </r>
        <r>  0.0105  0.0086  0.0089  0.0084  0.0000  0.0000  0.0000  0.0000  0.0000 </r>
        <r>  0.0001  0.0159  0.0005  0.0143  0.0000  0.0000  0.0000  0.0000  0.0000 </r>
        <r>  0.0036  0.0004  0.0138  0.0173  0.0000  0.0000  0.0000  0.0000  0.0000 </r>
        <r>  0.0033  0.0155  0.0155  0.0005  0.0000  0.0000  0.0000  0.0000  0.0000 </r>
        <r>  0.0000  0.0048  0.0002  0.0053  0.0000  0.0000  0.0000  0.0000  0.0000 </r>
       </set>
       <set comment="band 38">
        <r>  0.0011  0.0038  0.0002  0.0054  0.0000  0.0000  0.0000  0.0000  0.0000 </r>
        <r>  0.0333  0.0067  0.0281  0.0101  0.0000  0.0000  0.0000  0.0000  0.0000 </r>
        <r>  0.0344  0.0129  0.0262  0.0069  0.0000  0.0000  0.0000  0.0000  0.0000 </r>
        <r>  0.0333  0.0067  0.0260  0.0122  0.0000  0.0000  0.0000  0.0000  0.0000 </r>
        <r>  0.0011  0.0059  0.0002  0.0033  0.0000  0.0000  0.0000  0.0000  0.0000 </r>
        <r>  0.0344  0.0108  0.0283  0.0070  0.0000  0.0000  0.0000  0.0000  0.0000 </r>
        <r>  0.0001  0.0013  0.0002  0.0016  0.0000  0.0000  0.0000  0.0000  0.0000 </r>
        <r>  0.0015  0.0182  0.0111  0.0058  0.0000  0.0000  0.0000  0.0000  0.0000 </r>
        <r>  0.0015  0.0057  0.0105  0.0179  0.0000  0.0000  0.0000  0.0000  0.0000 </r>
        <r>  0.0000  0.0047  0.0002  0.0048  0.0000  0.0000  0.0000  0.0000  0.0000 </r>
       </set>
       <set comment="band 39">
        <r>  0.0448  0.0250  0.0090  0.0235  0.0000  0.0000  0.0000  0.0000  0.0000 </r>
        <r>  0.0126  0.0025  0.0008  0.0188  0.0000  0.0000  0.0000  0.0000  0.0000 </r>
        <r>  0.0115  0.0160  0.0026  0.0023  0.0000  0.0000  0.0000  0.0000  0.0000 </r>
        <r>  0.0126  0.0025  0.0029  0.0167  0.0000  0.0000  0.0000  0.0000  0.0000 </r>
        <r>  0.0448  0.0230  0.0090  0.0256  0.0000  0.0000  0.0000  0.0000  0.0000 </r>
        <r>  0.0115  0.0180  0.0005  0.0023  0.0000  0.0000  0.0000  0.0000  0.0000 </r>
        <r>  0.0020  0.0189  0.0076  0.0187  0.0000  0.0000  0.0000  0.0000  0.0000 </r>
        <r>  0.0005  0.0020  0.0091  0.0019  0.0000  0.0000  0.0000  0.0000  0.0000 </r>
        <r>  0.0006  0.0021  0.0097  0.0023  0.0000  0.0000  0.0000  0.0000  0.0000 </r>
        <r>  0.0000  0.0018  0.0063  0.0016  0.0000  0.0000  0.0000  0.0000  0.0000 </r>
       </set>
       <set comment="band 40">
        <r>  0.0027  0.0039  0.0099  0.0038  0.0000  0.0000  0.0000  0.0000  0.0000 </r>
        <r>  0.0027  0.0099  0.0039  0.0039  0.0000  0.0000  0.0000  0.0000  0.0000 </r>
        <r>  0.0027  0.0039  0.0038  0.0099  0.0000  0.0000  0.0000  0.0000  0.0000 </r>
        <r>  0.0027  0.0099  0.0039  0.0039  0.0000  0.0000  0.0000  0.0000  0.0000 </r>
        <r>  0.0027  0.0039  0.0099  0.0039  0.0000  0.0000  0.0000  0.0000  0.0000 </r>
        <r>  0.0027  0.0039  0.0039  0.0099  0.0000  0.0000  0.0000  0.0000  0.0000 </r>
        <r>  0.0010  0.0126  0.0195  0.0127  0.0000  0.0000  0.0000  0.0000  0.0000 </r>
        <r>  0.0010  0.0127  0.0127  0.0195  0.0000  0.0000  0.0000  0.0000  0.0000 </r>
        <r>  0.0010  0.0195  0.0126  0.0127  0.0000  0.0000  0.0000  0.0000  0.0000 </r>
        <r>  0.0011  0.0098  0.0098  0.0098  0.0000  0.0000  0.0000  0.0000  0.0000 </r>
       </set>
       <set comment="band 41">
        <r>  0.0000  0.0053  0.0010  0.0055  0.0000  0.0000  0.0000  0.0000  0.0000 </r>
        <r>  0.0003  0.0319  0.0010  0.0120  0.0000  0.0000  0.0000  0.0000  0.0000 </r>
        <r>  0.0003  0.0110  0.0022  0.0349  0.0000  0.0000  0.0000  0.0000  0.0000 </r>
        <r>  0.0003  0.0319  0.0017  0.0113  0.0000  0.0000  0.0000  0.0000  0.0000 </r>
        <r>  0.0000  0.0046  0.0010  0.0062  0.0000  0.0000  0.0000  0.0000  0.0000 </r>
        <r>  0.0003  0.0117  0.0015  0.0349  0.0000  0.0000  0.0000  0.0000  0.0000 </r>
        <r>  0.0000  0.0067  0.0000  0.0072  0.0000  0.0000  0.0000  0.0000  0.0000 </r>
        <r>  0.0000  0.0053  0.0002  0.0002  0.0000  0.0000  0.0000  0.0000  0.0000 </r>
        <r>  0.0000  0.0002  0.0003  0.0059  0.0000  0.0000  0.0000  0.0000  0.0000 </r>
        <r>  0.0000  0.0361  0.0012  0.0396  0.0000  0.0000  0.0000  0.0000  0.0000 </r>
       </set>
       <set comment="band 42">
        <r>  0.0004  0.0070  0.0443  0.0068  0.0000  0.0000  0.0000  0.0000  0.0000 </r>
        <r>  0.0001  0.0133  0.0114  0.0003  0.0000  0.0000  0.0000  0.0000  0.0000 </r>
        <r>  0.0001  0.0014  0.0101  0.0103  0.0000  0.0000  0.0000  0.0000  0.0000 </r>
        <r>  0.0001  0.0133  0.0107  0.0010  0.0000  0.0000  0.0000  0.0000  0.0000 </r>
        <r>  0.0004  0.0077  0.0443  0.0061  0.0000  0.0000  0.0000  0.0000  0.0000 </r>
        <r>  0.0001  0.0007  0.0108  0.0103  0.0000  0.0000  0.0000  0.0000  0.0000 </r>
        <r>  0.0000  0.0018  0.0002  0.0013  0.0000  0.0000  0.0000  0.0000  0.0000 </r>
        <r>  0.0000  0.0033  0.0084  0.0001  0.0000  0.0000  0.0000  0.0000  0.0000 </r>
        <r>  0.0000  0.0001  0.0083  0.0027  0.0000  0.0000  0.0000  0.0000  0.0000 </r>
        <r>  0.0000  0.0151  0.0501  0.0117  0.0000  0.0000  0.0000  0.0000  0.0000 </r>
       </set>
       <set comment="band 43">
        <r>  0.0000  0.0253  0.0000  0.0253  0.0000  0.0000  0.0000  0.0000  0.0000 </r>
        <r>  0.0000  0.0000  0.0253  0.0253  0.0000  0.0000  0.0000  0.0000  0.0000 </r>
        <r>  0.0000  0.0253  0.0253  0.0000  0.0000  0.0000  0.0000  0.0000  0.0000 </r>
        <r>  0.0000  0.0000  0.0253  0.0253  0.0000  0.0000  0.0000  0.0000  0.0000 </r>
        <r>  0.0000  0.0253  0.0000  0.0253  0.0000  0.0000  0.0000  0.0000  0.0000 </r>
        <r>  0.0000  0.0253  0.0253  0.0000  0.0000  0.0000  0.0000  0.0000  0.0000 </r>
        <r>  0.0000  0.0302  0.0000  0.0302  0.0000  0.0000  0.0000  0.0000  0.0000 </r>
        <r>  0.0000  0.0302  0.0302  0.0000  0.0000  0.0000  0.0000  0.0000  0.0000 </r>
        <r>  0.0000  0.0000  0.0302  0.0302  0.0000  0.0000  0.0000  0.0000  0.0000 </r>
        <r>  0.0000  0.0000  0.0000  0.0000  0.0000  0.0000  0.0000  0.0000  0.0000 </r>
       </set>
       <set comment="band 44">
        <r>  0.0445  0.0014  0.0239  0.0014  0.0000  0.0000  0.0000  0.0000  0.0000 </r>
        <r>  0.0445  0.0240  0.0014  0.0014  0.0000  0.0000  0.0000  0.0000  0.0000 </r>
        <r>  0.0446  0.0014  0.0014  0.0239  0.0000  0.0000  0.0000  0.0000  0.0000 </r>
        <r>  0.0445  0.0239  0.0014  0.0014  0.0000  0.0000  0.0000  0.0000  0.0000 </r>
        <r>  0.0445  0.0014  0.0239  0.0014  0.0000  0.0000  0.0000  0.0000  0.0000 </r>
        <r>  0.0446  0.0014  0.0014  0.0239  0.0000  0.0000  0.0000  0.0000  0.0000 </r>
        <r>  0.0190  0.0038  0.0179  0.0038  0.0000  0.0000  0.0000  0.0000  0.0000 </r>
        <r>  0.0190  0.0038  0.0038  0.0179  0.0000  0.0000  0.0000  0.0000  0.0000 </r>
        <r>  0.0190  0.0179  0.0038  0.0038  0.0000  0.0000  0.0000  0.0000  0.0000 </r>
        <r>  0.0008  0.0047  0.0047  0.0047  0.0000  0.0000  0.0000  0.0000  0.0000 </r>
       </set>
       <set comment="band 45">
        <r>  0.0004  0.0141  0.0006  0.0163  0.0000  0.0000  0.0000  0.0000  0.0000 </r>
        <r>  0.0112  0.0171  0.0076  0.0036  0.0000  0.0000  0.0000  0.0000  0.0000 </r>
        <r>  0.0125  0.0049  0.0039  0.0192  0.0000  0.0000  0.0000  0.0000  0.0000 </r>
        <r>  0.0111  0.0172  0.0052  0.0060  0.0000  0.0000  0.0000  0.0000  0.0000 </r>
        <r>  0.0004  0.0165  0.0006  0.0139  0.0000  0.0000  0.0000  0.0000  0.0000 </r>
        <r>  0.0125  0.0024  0.0063  0.0191  0.0000  0.0000  0.0000  0.0000  0.0000 </r>
        <r>  0.0002  0.0179  0.0007  0.0165  0.0000  0.0000  0.0000  0.0000  0.0000 </r>
        <r>  0.0064  0.0006  0.0112  0.0247  0.0000  0.0000  0.0000  0.0000  0.0000 </r>
        <r>  0.0057  0.0220  0.0132  0.0012  0.0000  0.0000  0.0000  0.0000  0.0000 </r>
        <r>  0.0000  0.0067  0.0002  0.0075  0.0000  0.0000  0.0000  0.0000  0.0000 </r>
       </set>
       <set comment="band 46">
        <r>  0.0197  0.0025  0.0276  0.0003  0.0000  0.0000  0.0000  0.0000  0.0000 </r>
        <r>  0.0061  0.0086  0.0098  0.0129  0.0000  0.0000  0.0000  0.0000  0.0000 </r>
        <r>  0.0044  0.0118  0.0134  0.0062  0.0000  0.0000  0.0000  0.0000  0.0000 </r>
        <r>  0.0061  0.0086  0.0121  0.0106  0.0000  0.0000  0.0000  0.0000  0.0000 </r>
        <r>  0.0197  0.0002  0.0276  0.0026  0.0000  0.0000  0.0000  0.0000  0.0000 </r>
        <r>  0.0044  0.0141  0.0111  0.0062  0.0000  0.0000  0.0000  0.0000  0.0000 </r>
        <r>  0.0068  0.0026  0.0347  0.0041  0.0000  0.0000  0.0000  0.0000  0.0000 </r>
        <r>  0.0015  0.0239  0.0115  0.0078  0.0000  0.0000  0.0000  0.0000  0.0000 </r>
        <r>  0.0021  0.0108  0.0091  0.0231  0.0000  0.0000  0.0000  0.0000  0.0000 </r>
        <r>  0.0000  0.0034  0.0109  0.0024  0.0000  0.0000  0.0000  0.0000  0.0000 </r>
       </set>
       <set comment="band 47">
        <r>  0.0127  0.0084  0.0119  0.0085  0.0000  0.0000  0.0000  0.0000  0.0000 </r>
        <r>  0.0126  0.0119  0.0084  0.0085  0.0000  0.0000  0.0000  0.0000  0.0000 </r>
        <r>  0.0128  0.0084  0.0085  0.0120  0.0000  0.0000  0.0000  0.0000  0.0000 </r>
        <r>  0.0128  0.0120  0.0085  0.0084  0.0000  0.0000  0.0000  0.0000  0.0000 </r>
        <r>  0.0127  0.0085  0.0119  0.0084  0.0000  0.0000  0.0000  0.0000  0.0000 </r>
        <r>  0.0127  0.0085  0.0084  0.0119  0.0000  0.0000  0.0000  0.0000  0.0000 </r>
        <r>  0.0000  0.0021  0.0144  0.0021  0.0000  0.0000  0.0000  0.0000  0.0000 </r>
        <r>  0.0000  0.0021  0.0021  0.0144  0.0000  0.0000  0.0000  0.0000  0.0000 </r>
        <r>  0.0000  0.0144  0.0021  0.0021  0.0000  0.0000  0.0000  0.0000  0.0000 </r>
        <r>  0.0357  0.0253  0.0254  0.0253  0.0000  0.0000  0.0000  0.0000  0.0000 </r>
       </set>
       <set comment="band 48">
        <r>  0.0006  0.0082  0.0014  0.0059  0.0000  0.0000  0.0000  0.0000  0.0000 </r>
        <r>  0.0181  0.0275  0.0064  0.0006  0.0000  0.0000  0.0000  0.0000  0.0000 </r>
        <r>  0.0210  0.0000  0.0056  0.0160  0.0000  0.0000  0.0000  0.0000  0.0000 </r>
        <r>  0.0191  0.0141  0.0067  0.0002  0.0000  0.0000  0.0000  0.0000  0.0000 </r>
        <r>  0.0007  0.0069  0.0012  0.0073  0.0000  0.0000  0.0000  0.0000  0.0000 </r>
        <r>  0.0200  0.0005  0.0053  0.0295  0.0000  0.0000  0.0000  0.0000  0.0000 </r>
        <r>  0.0000  0.0289  0.0002  0.0274  0.0000  0.0000  0.0000  0.0000  0.0000 </r>
        <r>  0.0074  0.0021  0.0133  0.0110  0.0000  0.0000  0.0000  0.0000  0.0000 </r>
        <r>  0.0061  0.0096  0.0162  0.0036  0.0000  0.0000  0.0000  0.0000  0.0000 </r>
        <r>  0.0004  0.0034  0.0002  0.0036  0.0000  0.0000  0.0000  0.0000  0.0000 </r>
       </set>
      </set>
     </set>
    </set>
   </array>
  </projected>
 </calculation>
 <structure name="finalpos" >
  <crystal>
   <varray name="basis" >
    <v>       5.07138327      -0.00000000      -0.00000000 </v>
    <v>      -0.00000000       5.07138327      -0.00000000 </v>
    <v>       0.00000000      -0.00000000       5.07138327 </v>
   </varray>
   <i name="volume">    130.43054231 </i>
   <varray name="rec_basis" >
    <v>       0.19718486       0.00000000      -0.00000000 </v>
    <v>       0.00000000       0.19718486       0.00000000 </v>
    <v>       0.00000000       0.00000000       0.19718486 </v>
   </varray>
  </crystal>
  <varray name="positions" >
   <v>      -0.00000000       0.00000000       0.50000000 </v>
   <v>      -0.00000000       0.50000000       0.00000000 </v>
   <v>       0.50000000       0.00000000       0.00000000 </v>
   <v>       0.50000000       0.00000000       0.50000000 </v>
   <v>       0.50000000       0.50000000       0.00000000 </v>
   <v>      -0.00000000       0.50000000       0.50000000 </v>
   <v>       0.75000000       0.75000000       0.25000000 </v>
   <v>       0.25000000       0.75000000       0.75000000 </v>
   <v>       0.75000000       0.25000000       0.75000000 </v>
   <v>       0.25000000       0.25000000       0.25000000 </v>
  </varray>
 </structure>
</modeling>
