
                                 *****************
                                 * O   R   C   A *
                                 *****************

           --- An Ab Initio, DFT and Semiempirical electronic structure package ---

                  #######################################################
                  #                        -***-                        #
                  #          Department of theory and spectroscopy      #
                  #               Directorship: Frank Neese             #
                  #        Max Planck Institute fuer Kohlenforschung    #
                  #                Kaiser Wilhelm Platz 1               #
                  #                 D-45470 Muelheim/Ruhr               #
                  #                      Germany                        #
                  #                                                     #
                  #                  All rights reserved                #
                  #                        -***-                        #
                  #######################################################


                         Program Version 4.2.1 -  RELEASE  -


 With contributions from (in alphabetic order):
   Daniel Aravena         : Magnetic Suceptibility
   Michael Atanasov       : Ab Initio Ligand Field Theory (pilot matlab implementation)
   Alexander A. Auer      : GIAO ZORA, VPT2
   Ute Becker             : Parallelization
   Giovanni Bistoni       : ED, misc. LED, open-shell LED, HFLD
   Martin Brehm           : Molecular dynamics
   Dmytro Bykov           : SCF Hessian
   Vijay G. Chilkuri      : MRCI spin determinant printing, contributions to CSF-ICE
   Dipayan Datta          : RHF DLPNO-CCSD density
   Achintya Kumar Dutta   : EOM-CC, STEOM-CC
   Dmitry Ganyushin       : Spin-Orbit,Spin-Spin,Magnetic field MRCI
   Miquel Garcia          : C-PCM Hessian, Gaussian charge scheme
   Yang Guo               : DLPNO-NEVPT2, CIM, IAO-localization
   Andreas Hansen         : Spin unrestricted coupled pair/coupled cluster methods
   Benjamin Helmich-Paris : CASSCF linear response (MC-RPA)
   Lee Huntington         : MR-EOM, pCC
   Robert Izsak           : Overlap fitted RIJCOSX, COSX-SCS-MP3, EOM
   Christian Kollmar      : KDIIS, OOCD, Brueckner-CCSD(T), CCSD density
   Simone Kossmann        : Meta GGA functionals, TD-DFT gradient, OOMP2, MP2 Hessian
   Martin Krupicka        : AUTO-CI
   Lucas Lang             : DCDCAS
   Dagmar Lenk            : GEPOL surface, SMD
   Dimitrios Liakos       : Extrapolation schemes; Compound Job, initial MDCI parallelization
   Dimitrios Manganas     : Further ROCIS development; embedding schemes
   Dimitrios Pantazis     : SARC Basis sets
   Taras Petrenko         : DFT Hessian,TD-DFT gradient, ASA, ECA, R-Raman, ABS, FL, XAS/XES, NRVS
   Peter Pinski           : DLPNO-MP2, DLPNO-MP2 Gradient
   Christoph Reimann      : Effective Core Potentials
   Marius Retegan         : Local ZFS, SOC
   Christoph Riplinger    : Optimizer, TS searches, QM/MM, DLPNO-CCSD(T), (RO)-DLPNO pert. Triples
   Tobias Risthaus        : Range-separated hybrids, TD-DFT gradient, RPA, STAB
   Michael Roemelt        : Original ROCIS implementation
   Masaaki Saitow         : Open-shell DLPNO-CCSD energy and density
   Barbara Sandhoefer     : DKH picture change effects
   Avijit Sen             : IP-ROCIS
   Kantharuban Sivalingam : CASSCF convergence, NEVPT2, FIC-MRCI
   Bernardo de Souza      : ESD, SOC TD-DFT
   Georgi Stoychev        : AutoAux, RI-MP2 NMR
   Willem Van den Heuvel  : Paramagnetic NMR
   Boris Wezisla          : Elementary symmetry handling
   Frank Wennmohs         : Technical directorship


 We gratefully acknowledge several colleagues who have allowed us to
 interface, adapt or use parts of their codes:
   Stefan Grimme, W. Hujo, H. Kruse,             : VdW corrections, initial TS optimization,
                  C. Bannwarth                     DFT functionals, gCP, sTDA/sTD-DF
   Ed Valeev, F. Pavosevic, A. Kumar             : LibInt (2-el integral package), F12 methods
   Garnet Chan, S. Sharma, J. Yang, R. Olivares  : DMRG
   Ulf Ekstrom                                   : XCFun DFT Library
   Mihaly Kallay                                 : mrcc  (arbitrary order and MRCC methods)
   Andreas Klamt, Michael Diedenhofen            : otool_cosmo (COSMO solvation model)
   Jiri Pittner, Ondrej Demel                    : Mk-CCSD
   Frank Weinhold                                : gennbo (NPA and NBO analysis)
   Christopher J. Cramer and Donald G. Truhlar   : smd solvation model
   Lars Goerigk                                  : TD-DFT with DH, B97 family of functionals
   V. Asgeirsson, H. Jonsson                     : NEB implementation
   FAccTs GmbH                                   : IRC, NEB, NEB-TS, Multilevel, MM, QM/MM, CI optimization
   S Lehtola, MJT Oliveira, MAL Marques          : LibXC Library


 Your calculation uses the libint2 library for the computation of 2-el integrals
 For citations please refer to: http://libint.valeyev.net

 Your ORCA version has been built with support for libXC version: 4.2.3
 For citations please refer to: https://tddft.org/programs/libxc/

 This ORCA versions uses:
   CBLAS   interface :  Fast vector & matrix operations
   LAPACKE interface :  Fast linear algebra routines
   SCALAPACK package :  Parallel linear algebra routines


Your calculation utilizes the atom-pairwise dispersion correction
with the zero-damping scheme (D30)
Cite in your paper:
S.Grimme, J.Antony, S.Ehrlich and H.Krieg, J.Chem.Phys., 132, (2010), 154104 
   

XCFun DFT library Copyright 2009-2010 Ulf Ekstrom and contributors.
See http://admol.org/xcfun for more information. This is free soft-
ware; see the source code for copying conditions. There is ABSOLUTELY
NO WARRANTY; not even for MERCHANTABILITY or FITNESS FOR A PARTICULAR
PURPOSE. For details see the documentation. Scientific users of this 
library should cite U. Ekstrom, L. Visscher, R. Bast, A. J. Thorvald-
sen and K. Ruud; J.Chem.Theor.Comp. 2010, DOI: 10.1021/ct100117s
XCFun Version 0.99 
----- Orbital basis set information -----
Your calculation utilizes the basis: def2-TZVP
   F. Weigend and R. Ahlrichs, Phys. Chem. Chem. Phys. 7, 3297 (2005).

----- AuxJ basis set information -----
Your calculation utilizes the auxiliary basis: def2/J
   F. Weigend, Phys. Chem. Chem. Phys. 8, 1057 (2006).

----- AuxC basis set information -----
Your calculation utilizes the auxiliary basis: def2-SVP/C
  H-La, Hf-Rn : A. Hellweg, C. Hattig, S. Hofener and W. Klopper, Theor. Chem. Acc. 117, 587 (2007).
        Ce-Lu : J. Chmela and M. E. Harding, Mol. Phys. (2018).

cite the ECPs for Mo [Def2-ECP] as follows:
Ce-Yb(ecp-28): M. Dolg, H. Stoll, H.Preuss, J. Chem. Phys., 1989, 90, 1730-1734.
Y-Cd(ecp-28), Hf-Hg(ecp-46): D. Andrae,U. Haeussermann, M. Dolg, H. Stoll, H. Preuss, Theor. Chim. Acta, 1990, 77, 123-141.
In-Sb(ecp-28), Tl-Bi(ecp-46): B. Metz, H. Stoll, M. Dolg, J. Chem. Phys., 2000, 113, 2563-2569.
Te-Xe(ecp-28), Po-Rn(ecp-46): K. A. Peterson, D. Figgen, E. Goll, H. Stoll, M. Dolg, J. Chem. Phys., 2003, 119, 11113-11123.
Rb(ecp-28), Cs(ecp-46): T. Leininger, A. Nicklass, W. Kuechle, H. Stoll, M. Dolg, A. Bergner, Chem. Phys. Lett., 1996, 255, 274-280.
Sr(ecp-28), Ba(ecp-46): M. Kaupp, P. V. Schleyer, H. Stoll and H. Preuss, J. Chem. Phys., 1991, 94, 1360-1366.
La(ecp-46): M. Dolg, H. Stoll, A. Savin, H. Preuss, Theor. Chim. Acta, 1989, 75, 173-194.
Lu(ecp-28): X. Cao, M. Dolg, J. Chem. Phys., 2001, 115, 7348-7355.

ECP parameters for Mo [Def2-ECP] have been obtained from:
TURBOMOLE (7.0.2)

================================================================================
                                        WARNINGS
                       Please study these warnings very carefully!
================================================================================

INFO   : Checking CIS options ...

INFO   : Since TDDFT/CIS Mode == RPA_AOINTS, the TAMMDANCOFF/TDA keyword is ignored. 


WARNING: Geometry Optimization
  ===> : Switching off AutoStart
         For restart on a previous wavefunction, please use MOREAD

WARNING: CIS/ROCIS methods need fully converged wavefunctions
  ===> : Setting SCFConvForced true
         You can overwrite this default with %scf ConvForced false 


INFO   : the flag for use of LIBINT has been found!

================================================================================
                                       INPUT FILE
================================================================================
NAME = mo4.inp
|  1> !RKS wB97X-D3 def2-TZVP RIJCOSX def2-SVP/C def2/J Grid6 GridX7  NoFinalGrid TightSCF OPT
|  2> %maxcore 25000
|  3> %tddft
|  4> Nroots 4 # The number of excited states to calculate.
|  5> MaxDim 7
|  6> tda false
|  7> iroot 4
|  8> MaxIter 500
|  9> ETol 1e-5
| 10> RTol 1e-5
| 11> end
| 12> 
| 13> #%method
| 14> #RI on # do use the RI approximation
| 15> #end
| 16> 
| 17> %geom
| 18> MaxIter 500
| 19> end
| 20> 
| 21> * xyz 1 1  
| 22>   Mo    10.234218   10.474723   14.720248
| 23>   Cl     6.595363    6.719986   15.811699
| 24>   Cl     3.745517    8.133702   17.248517
| 25>   P      7.172868   12.243529   16.538830
| 26>   P      9.116929   12.207173   15.854871
| 27>   O     11.090333   12.205602   12.246734
| 28>   O     12.907023   11.762442   15.707114
| 29>   N      7.182320    9.348680   15.987482
| 30>   N      5.419856   10.213554   16.902037
| 31>   C      6.648999   10.522767   16.422113
| 32>   C      6.277084    8.317667   16.216838
| 33>   C      5.177494    8.863119   16.770989
| 34>   C      8.427976    9.096563   15.354135
| 35>   C      8.472312    8.982111   13.916510
| 36>   C      9.643325    8.593337   13.297474
| 37>   C     10.822600    8.349071   14.046064
| 38>   C     10.723866    8.296550   15.477889
| 39>   C      9.537304    8.649934   16.120347
| 40>   C      4.490667   11.141573   17.489099
| 41>   C      4.476023   11.285305   18.865030
| 42>   C      3.558856   12.152748   19.433267
| 43>   H      3.530637   12.274845   20.508320
| 44>   C      2.678306   12.857524   18.625205
| 45>   H      1.960673   13.532506   19.074013
| 46>   C      2.707520   12.700329   17.247037
| 47>   H      2.017663   13.250914   16.620789
| 48>   C      3.618149   11.832316   16.667278
| 49>   C      9.716152   13.831995   16.351034
| 50>   C      9.335038   14.401250   17.569296
| 51>   C      9.838543   15.631540   17.951833
| 52>   H      9.544035   16.059559   18.902088
| 53>   C     10.729622   16.305038   17.129510
| 54>   H     11.126293   17.265665   17.434505
| 55>   C     11.122729   15.742800   15.923612
| 56>   H     11.824470   16.263943   15.284910
| 57>   C     10.624798   14.510192   15.535737
| 58>   C     11.932182   11.279629   15.366916
| 59>   C     10.744836   11.588907   13.138372
| 60>   H     11.733255    8.055796   13.546283
| 61>   H     11.588313    8.014456   16.064206
| 62>   H      9.468970    8.637906   17.200711
| 63>   H      9.687598    8.559748   12.216086
| 64>   H      7.595454    9.231675   13.335159
| 65>   H     10.942395   14.080397   14.593624
| 66>   H      8.662818   13.870167   18.232458
| 67>   H      5.169716   10.722760   19.477883
| 68>   H      3.654493   11.692786   15.593728
| 69> *
| 70> 
| 71>                          ****END OF INPUT****
================================================================================

                       *****************************
                       * Geometry Optimization Run *
                       *****************************

Geometry optimization settings:
Update method            Update   .... BFGS
Choice of coordinates    CoordSys .... Z-matrix Internals
Initial Hessian          InHess   .... Almoef's Model

Convergence Tolerances:
Energy Change            TolE     ....  5.0000e-06 Eh
Max. Gradient            TolMAXG  ....  3.0000e-04 Eh/bohr
RMS Gradient             TolRMSG  ....  1.0000e-04 Eh/bohr
Max. Displacement        TolMAXD  ....  4.0000e-03 bohr
RMS Displacement         TolRMSD  ....  2.0000e-03 bohr
Strict Convergence                ....  False
------------------------------------------------------------------------------
                        ORCA OPTIMIZATION COORDINATE SETUP
------------------------------------------------------------------------------

The optimization will be done in new redundant internal coordinates
Making redundant internal coordinates   ...  (new redundants) done
Evaluating the initial hessian          ...  (Almloef) done
Evaluating the coordinates              ...  done
Calculating the B-matrix                .... done
Calculating the G-matrix                .... done
Diagonalizing the G-matrix              .... done
Small eigenvalue found = 2.707e-03
Small eigenvalue found = 7.980e-03
Small eigenvalue found = 9.862e-03
Small eigenvalue found = 2.455e-02
The first mode is                       ....  334
The number of degrees of freedom        ....  135

    -----------------------------------------------------------------
                    Redundant Internal Coordinates


    -----------------------------------------------------------------
         Definition                    Initial Value    Approx d2E/dq
    -----------------------------------------------------------------
      1. B(P   4,P   3)                  2.0612         0.599638   
      2. B(P   4,Mo  0)                  2.3531         0.617718   
      3. B(C   9,N   8)                  1.3553         0.635769   
      4. B(C   9,N   7)                  1.3608         0.622930   
      5. B(C   9,P   3)                  1.8025         0.461404   
      6. B(C  10,N   7)                  1.3911         0.557425   
      7. B(C  10,Cl  1)                  1.6787         0.485441   
      8. B(C  11,C  10)                  1.3467         0.732424   
      9. B(C  11,N   8)                  1.3783         0.584270   
     10. B(C  11,Cl  2)                  1.6765         0.489382   
     11. B(C  12,N   7)                  1.4200         0.501234   
     12. B(C  12,Mo  0)                  2.3587         0.180013   
     13. B(C  13,Mo  0)                  2.4450         0.131106   
     14. B(C  13,C  12)                  1.4429         0.514531   
     15. B(C  14,Mo  0)                  2.4317         0.137700   
     16. B(C  14,C  13)                  1.3804         0.647123   
     17. B(C  15,C  14)                  1.4180         0.563710   
     18. B(C  15,Mo  0)                  2.3063         0.218239   
     19. B(C  16,C  15)                  1.4362         0.527293   
     20. B(C  16,Mo  0)                  2.3576         0.180776   
     21. B(C  17,C  16)                  1.3948         0.613799   
     22. B(C  17,C  12)                  1.4203         0.559042   
     23. B(C  17,Mo  0)                  2.4033         0.152833   
     24. B(C  18,N   8)                  1.4385         0.468288   
     25. B(C  19,C  18)                  1.3835         0.639906   
     26. B(C  20,C  19)                  1.3844         0.637798   
     27. B(H  21,C  20)                  1.0823         0.370388   
     28. B(C  22,C  20)                  1.3875         0.630657   
     29. B(H  23,C  22)                  1.0826         0.370021   
     30. B(C  24,C  22)                  1.3874         0.630766   
     31. B(H  25,C  24)                  1.0822         0.370520   
     32. B(C  26,C  24)                  1.3852         0.635883   
     33. B(C  26,C  18)                  1.3834         0.640124   
     34. B(C  27,P   4)                  1.8015         0.463190   
     35. B(C  28,C  27)                  1.3977         0.607453   
     36. B(C  29,C  28)                  1.3833         0.640411   
     37. B(H  30,C  29)                  1.0830         0.369461   
     38. B(C  31,C  29)                  1.3870         0.631664   
     39. B(H  32,C  31)                  1.0831         0.369302   
     40. B(C  33,C  31)                  1.3874         0.630830   
     41. B(H  34,C  33)                  1.0826         0.370056   
     42. B(C  35,C  33)                  1.3848         0.636818   
     43. B(C  35,C  27)                  1.3965         0.609985   
     44. B(C  36,O   6)                  1.1398         1.402955   
     45. B(C  36,Mo  0)                  1.9872         0.704693   
     46. B(C  37,O   5)                  1.1378         1.413081   
     47. B(C  37,Mo  0)                  2.0011         0.669677   
     48. B(H  38,C  15)                  1.0794         0.374412   
     49. B(H  39,C  16)                  1.0819         0.370910   
     50. B(H  40,C  17)                  1.0826         0.370037   
     51. B(H  41,C  14)                  1.0828         0.369731   
     52. B(H  42,C  13)                  1.0813         0.371845   
     53. B(H  43,C  35)                  1.0831         0.369305   
     54. B(H  44,C  28)                  1.0834         0.368964   
     55. B(H  45,C  19)                  1.0832         0.369251   
     56. B(H  46,C  26)                  1.0832         0.369223   
     57. A(C  14,Mo  0,C  16)           61.5545         0.336720   
     58. A(P   4,Mo  0,C  16)          128.5994         0.458252   
     59. A(C  14,Mo  0,C  37)           91.7344         0.422185   
     60. A(P   4,Mo  0,C  13)          105.4145         0.432356   
     61. A(C  12,Mo  0,C  16)           62.1515         0.352209   
     62. A(C  12,Mo  0,C  13)           34.8995         0.333750   
     63. A(C  14,Mo  0,C  17)           71.5148         0.327482   
     64. A(C  16,Mo  0,C  37)          135.6801         0.443356   
     65. A(C  13,Mo  0,C  14)           32.8854         0.319347   
     66. A(P   4,Mo  0,C  36)           87.1677         0.591408   
     67. A(C  12,Mo  0,C  14)           61.2561         0.336483   
     68. A(C  12,Mo  0,C  17)           34.6888         0.342393   
     69. A(C  12,Mo  0,C  15)           74.6574         0.363671   
     70. A(C  14,Mo  0,C  36)          135.3488         0.426051   
     71. A(C  15,Mo  0,C  16)           35.8484         0.363934   
     72. A(P   4,Mo  0,C  12)           86.3874         0.457898   
     73. A(C  13,Mo  0,C  17)           61.2508         0.324848   
     74. A(C  12,Mo  0,C  37)          137.1512         0.443017   
     75. A(C  15,Mo  0,C  17)           62.9010         0.353682   
     76. A(C  36,Mo  0,C  37)           79.2628         0.571141   
     77. A(C  13,Mo  0,C  36)          165.9158         0.422328   
     78. A(P   4,Mo  0,C  14)          137.4235         0.436191   
     79. A(C  12,Mo  0,C  36)          143.4655         0.447124   
     80. A(C  16,Mo  0,C  36)           95.2891         0.447468   
     81. A(C  17,Mo  0,C  36)          111.4528         0.434100   
     82. A(C  14,Mo  0,C  15)           34.7010         0.347508   
     83. A(P   4,Mo  0,C  17)           98.0723         0.444482   
     84. A(C  13,Mo  0,C  15)           61.6473         0.344653   
     85. A(C  15,Mo  0,C  36)          104.5042         0.463078   
     86. A(C  17,Mo  0,C  37)          163.1910         0.430142   
     87. A(C  13,Mo  0,C  16)           72.0186         0.333984   
     88. A(C  13,Mo  0,C  37)          105.3026         0.418505   
     89. A(C  15,Mo  0,C  37)          102.5323         0.458788   
     90. A(C  16,Mo  0,C  17)           34.0554         0.342636   
     91. A(P   4,Mo  0,C  15)          160.1613         0.474332   
     92. A(P   4,Mo  0,C  37)           95.3014         0.585646   
     93. A(P   4,P   3,C   9)          103.6383         0.492694   
     94. A(P   3,P   4,C  27)          101.9131         0.493047   
     95. A(Mo  0,P   4,P   3)          128.3761         0.576183   
     96. A(Mo  0,P   4,C  27)          129.7108         0.518209   
     97. A(C   9,N   7,C  12)          129.7502         0.412807   
     98. A(C  10,N   7,C  12)          120.8510         0.404766   
     99. A(C   9,N   7,C  10)          109.3763         0.420689   
    100. A(C  11,N   8,C  18)          123.8712         0.403272   
    101. A(C   9,N   8,C  11)          110.4485         0.425790   
    102. A(C   9,N   8,C  18)          125.6734         0.409338   
    103. A(P   3,C   9,N   8)          117.2881         0.438266   
    104. A(N   7,C   9,N   8)          105.7651         0.430710   
    105. A(P   3,C   9,N   7)          136.9222         0.436657   
    106. A(Cl  1,C  10,N   7)          122.8354         0.423320   
    107. A(N   7,C  10,C  11)          107.3967         0.435925   
    108. A(Cl  1,C  10,C  11)          129.7606         0.447583   
    109. A(N   8,C  11,C  10)          107.0011         0.439638   
    110. A(Cl  2,C  11,C  10)          129.6716         0.448240   
    111. A(Cl  2,C  11,N   8)          123.3271         0.427517   
    112. A(C  13,C  12,C  17)          119.2475         0.412147   
    113. A(N   7,C  12,C  17)          120.0258         0.407594   
    114. A(Mo  0,C  12,C  17)           74.3715         0.383252   
    115. A(N   7,C  12,C  13)          119.0418         0.401667   
    116. A(Mo  0,C  12,N   7)          133.4627         0.373710   
    117. A(Mo  0,C  12,C  13)           75.8212         0.377778   
    118. A(C  12,C  13,H  42)          119.5039         0.343847   
    119. A(Mo  0,C  13,C  14)           73.0255         0.372100   
    120. A(Mo  0,C  13,C  12)           69.2793         0.357783   
    121. A(Mo  0,C  13,H  42)          128.3322         0.304992   
    122. A(C  14,C  13,H  42)          120.7853         0.357422   
    123. A(C  12,C  13,C  14)          119.6838         0.423027   
    124. A(Mo  0,C  14,H  41)          126.7549         0.307123   
    125. A(Mo  0,C  14,C  13)           74.0891         0.375262   
    126. A(C  15,C  14,H  41)          119.2010         0.348832   
    127. A(C  13,C  14,H  41)          119.4236         0.357076   
    128. A(C  13,C  14,C  15)          121.1480         0.430001   
    129. A(Mo  0,C  14,C  15)           67.8091         0.366459   
    130. A(C  14,C  15,H  38)          120.2652         0.349573   
    131. A(Mo  0,C  15,H  38)          126.9420         0.331776   
    132. A(C  14,C  15,C  16)          118.3880         0.414556   
    133. A(Mo  0,C  15,C  16)           74.0221         0.392320   
    134. A(Mo  0,C  15,C  14)           77.4899         0.396940   
    135. A(C  16,C  15,H  38)          120.6425         0.345664   
    136. A(C  17,C  16,H  39)          119.7440         0.354078   
    137. A(Mo  0,C  16,H  39)          125.5191         0.321150   
    138. A(C  15,C  16,C  17)          120.5584         0.420890   
    139. A(Mo  0,C  16,C  17)           74.7678         0.389830   
    140. A(Mo  0,C  16,C  15)           70.1295         0.379662   
    141. A(C  15,C  16,H  39)          119.6612         0.345118   
    142. A(C  16,C  17,H  40)          120.6993         0.353937   
    143. A(C  12,C  17,H  40)          119.5094         0.348392   
    144. A(Mo  0,C  17,H  40)          127.4535         0.312374   
    145. A(C  12,C  17,C  16)          119.7112         0.425311   
    146. A(Mo  0,C  17,C  16)           71.1768         0.378612   
    147. A(Mo  0,C  17,C  12)           70.9396         0.372551   
    148. A(N   8,C  18,C  19)          118.6684         0.412470   
    149. A(C  19,C  18,C  26)          122.1583         0.439065   
    150. A(N   8,C  18,C  26)          119.1489         0.412495   
    151. A(C  20,C  19,H  45)          121.1627         0.356118   
    152. A(C  18,C  19,C  20)          118.7065         0.438776   
    153. A(C  18,C  19,H  45)          120.1303         0.356317   
    154. A(C  19,C  20,C  22)          119.9793         0.437626   
    155. A(C  19,C  20,H  21)          119.7130         0.356304   
    156. A(H  21,C  20,C  22)          120.3073         0.355623   
    157. A(H  23,C  22,C  24)          119.7622         0.355574   
    158. A(C  20,C  22,C  24)          120.5046         0.436752   
    159. A(C  20,C  22,H  23)          119.7328         0.355564   
    160. A(H  25,C  24,C  26)          119.7128         0.356143   
    161. A(C  22,C  24,C  26)          120.0388         0.437402   
    162. A(C  22,C  24,H  25)          120.2479         0.355655   
    163. A(C  18,C  26,C  24)          118.6114         0.438565   
    164. A(C  24,C  26,H  46)          121.1705         0.355932   
    165. A(C  18,C  26,H  46)          120.2180         0.356333   
    166. A(C  28,C  27,C  35)          119.2415         0.431209   
    167. A(P   4,C  27,C  35)          119.5803         0.438184   
    168. A(P   4,C  27,C  28)          121.1125         0.437856   
    169. A(C  29,C  28,H  44)          119.5094         0.356318   
    170. A(C  27,C  28,H  44)          120.2045         0.353140   
    171. A(C  27,C  28,C  29)          120.2675         0.435000   
    172. A(H  30,C  29,C  31)          120.1981         0.355568   
    173. A(C  28,C  29,C  31)          120.1163         0.438075   
    174. A(C  28,C  29,H  30)          119.6805         0.356400   
    175. A(H  32,C  31,C  33)          120.0264         0.355463   
    176. A(C  29,C  31,C  33)          120.0376         0.436886   
    177. A(C  29,C  31,H  32)          119.9329         0.355542   
    178. A(H  34,C  33,C  35)          119.7560         0.356157   
    179. A(C  31,C  33,C  35)          120.1511         0.437526   
    180. A(C  31,C  33,H  34)          120.0920         0.355586   
    181. A(C  33,C  35,H  43)          119.4319         0.356034   
    182. A(C  27,C  35,H  43)          120.3895         0.353444   
    183. A(C  27,C  35,C  33)          120.1779         0.434885   
    184. L(Mo  0,C  36,O   6,P   4, 2) 182.3953         0.578469   
    185. L(Mo  0,C  36,O   6,P   4, 1) 179.9583         0.578469   
    186. L(Mo  0,C  37,O   5,C  36, 2) 177.5717         0.573644   
    187. L(Mo  0,C  37,O   5,C  36, 1) 177.7627         0.573644   
    188. D(P   3,P   4,Mo  0,C  12)    -13.1096         0.002154   
    189. D(P   3,P   4,Mo  0,C  13)     16.4479         0.002154   
    190. D(P   3,P   4,Mo  0,C  16)    -62.6199         0.002154   
    191. D(C  27,P   4,Mo  0,C  17)    134.2124         0.002154   
    192. D(C  27,P   4,Mo  0,C  14)   -154.3872         0.002154   
    193. D(C  27,P   4,Mo  0,C  36)     22.9383         0.002154   
    194. D(Mo  0,P   4,P   3,C   9)     12.9546         0.002576   
    195. D(P   3,P   4,Mo  0,C  37)    123.9370         0.002154   
    196. D(P   3,P   4,Mo  0,C  36)   -157.1280         0.002154   
    197. D(C  27,P   4,Mo  0,C  15)    149.9340         0.002154   
    198. D(C  27,P   4,Mo  0,C  13)   -163.4857         0.002154   
    199. D(C  27,P   4,Mo  0,C  12)    166.9568         0.002154   
    200. D(P   3,P   4,Mo  0,C  14)     25.5464         0.002154   
    201. D(P   3,P   4,Mo  0,C  17)    -45.8540         0.002154   
    202. D(C  27,P   4,P   3,C   9)   -167.0975         0.002576   
    203. D(P   3,P   4,Mo  0,C  15)    -30.1324         0.002154   
    204. D(C  27,P   4,Mo  0,C  16)    117.4465         0.002154   
    205. D(C  27,P   4,Mo  0,C  37)    -55.9966         0.002154   
    206. D(N   8,C   9,N   7,C  12)    177.6639         0.031445   
    207. D(N   7,C   9,N   8,C  11)     -0.1020         0.032863   
    208. D(N   7,C   9,N   8,C  18)    178.9689         0.032863   
    209. D(N   8,C   9,P   3,P   4)    175.3285         0.003900   
    210. D(N   7,C   9,P   3,P   4)     -2.5573         0.003900   
    211. D(P   3,C   9,N   8,C  18)      0.4691         0.032863   
    212. D(N   8,C   9,N   7,C  10)     -0.5899         0.031445   
    213. D(P   3,C   9,N   7,C  10)    177.4579         0.031445   
    214. D(P   3,C   9,N   7,C  12)     -4.2884         0.031445   
    215. D(P   3,C   9,N   8,C  11)   -178.6018         0.032863   
    216. D(Cl  1,C  10,N   7,C  12)      1.7489         0.024802   
    217. D(C  11,C  10,N   7,C   9)      1.0749         0.024802   
    218. D(Cl  1,C  10,N   7,C   9)   -179.8149         0.024802   
    219. D(C  11,C  10,N   7,C  12)   -177.3613         0.024802   
    220. D(N   8,C  11,C  10,N   7)     -1.0995         0.038086   
    221. D(N   8,C  11,C  10,Cl  1)    179.8731         0.038086   
    222. D(Cl  2,C  11,N   8,C  18)      1.5381         0.027406   
    223. D(Cl  2,C  11,C  10,N   7)    179.0516         0.038086   
    224. D(C  10,C  11,N   8,C   9)      0.7681         0.027406   
    225. D(Cl  2,C  11,C  10,Cl  1)      0.0242         0.038086   
    226. D(Cl  2,C  11,N   8,C   9)   -179.3710         0.027406   
    227. D(C  10,C  11,N   8,C  18)   -178.3228         0.027406   
    228. D(C  17,C  12,Mo  0,C  16)     27.9791         0.001696   
    229. D(C  17,C  12,Mo  0,C  37)    156.3148         0.001696   
    230. D(C  13,C  12,Mo  0,C  37)     29.8765         0.001696   
    231. D(C  17,C  12,Mo  0,C  15)     64.3046         0.001696   
    232. D(C  13,C  12,Mo  0,C  14)    -27.4034         0.001696   
    233. D(C  13,C  12,Mo  0,C  36)   -155.9143         0.001696   
    234. D(C  17,C  12,Mo  0,C  14)     99.0348         0.001696   
    235. D(C  17,C  12,Mo  0,C  36)    -29.4760         0.001696   
    236. D(C  13,C  12,Mo  0,C  16)    -98.4591         0.001696   
    237. D(Mo  0,C  12,N   7,C   9)      0.5124         0.021552   
    238. D(N   7,C  12,Mo  0,C  37)    -86.8928         0.001696   
    239. D(C  13,C  12,Mo  0,C  15)    -62.1337         0.001696   
    240. D(N   7,C  12,Mo  0,P   4)      7.0103         0.001696   
    241. D(C  13,C  12,Mo  0,P   4)    123.7796         0.001696   
    242. D(N   7,C  12,Mo  0,C  13)   -116.7693         0.001696   
    243. D(C  17,C  12,Mo  0,P   4)   -109.7821         0.001696   
    244. D(N   7,C  12,Mo  0,C  36)     87.3164         0.001696   
    245. D(C  17,C  12,Mo  0,C  13)    126.4383         0.001696   
    246. D(N   7,C  12,Mo  0,C  14)   -144.1728         0.001696   
    247. D(C  13,C  12,Mo  0,C  17)   -126.4383         0.001696   
    248. D(N   7,C  12,Mo  0,C  16)    144.7715         0.001696   
    249. D(Mo  0,C  12,N   7,C  10)    178.5935         0.021552   
    250. D(C  17,C  12,N   7,C  10)    -84.5694         0.021552   
    251. D(C  13,C  12,N   7,C  10)     80.5327         0.021552   
    252. D(C  17,C  12,N   7,C   9)     97.3495         0.021552   
    253. D(C  13,C  12,N   7,C   9)    -97.5484         0.021552   
    254. D(N   7,C  12,Mo  0,C  17)    116.7924         0.001696   
    255. D(N   7,C  12,Mo  0,C  15)   -178.9030         0.001696   
    256. D(H  42,C  13,C  12,C  17)    174.1625         0.020996   
    257. D(H  42,C  13,C  12,N   7)      8.9431         0.020996   
    258. D(H  42,C  13,C  12,Mo  0)   -123.2204         0.020996   
    259. D(C  14,C  13,C  12,N   7)   -172.9298         0.020996   
    260. D(Mo  0,C  13,C  12,C  17)    -62.6171         0.020996   
    261. D(H  42,C  13,Mo  0,C  17)    143.3300         0.001607   
    262. D(C  14,C  13,C  12,Mo  0)     54.9067         0.020996   
    263. D(H  42,C  13,Mo  0,C  36)   -154.8593         0.001607   
    264. D(H  42,C  13,Mo  0,C  37)    -47.5902         0.001607   
    265. D(H  42,C  13,Mo  0,C  12)    111.8482         0.001607   
    266. D(H  42,C  13,Mo  0,P   4)     52.4773         0.001607   
    267. D(C  14,C  13,Mo  0,C  37)     68.5682         0.001607   
    268. D(C  14,C  13,Mo  0,C  36)    -38.7009         0.001607   
    269. D(C  14,C  13,Mo  0,C  17)   -100.5116         0.001607   
    270. D(Mo  0,C  13,C  12,N   7)    132.1635         0.020996   
    271. D(H  42,C  13,Mo  0,C  14)   -116.1584         0.001607   
    272. D(H  42,C  13,Mo  0,C  15)   -143.7889         0.001607   
    273. D(H  42,C  13,Mo  0,C  16)    178.6979         0.001607   
    274. D(C  14,C  13,Mo  0,P   4)    168.6357         0.001607   
    275. D(C  12,C  13,Mo  0,C  15)    104.3629         0.001607   
    276. D(C  12,C  13,Mo  0,C  16)     66.8497         0.001607   
    277. D(C  12,C  13,Mo  0,C  36)     93.2926         0.001607   
    278. D(C  12,C  13,Mo  0,C  14)    131.9934         0.001607   
    279. D(C  12,C  13,Mo  0,C  37)   -159.4383         0.001607   
    280. D(C  14,C  13,Mo  0,C  12)   -131.9934         0.001607   
    281. D(C  14,C  13,C  12,C  17)     -7.7104         0.020996   
    282. D(C  12,C  13,Mo  0,P   4)    -59.3709         0.001607   
    283. D(C  12,C  13,Mo  0,C  17)     31.4818         0.001607   
    284. D(C  14,C  13,Mo  0,C  16)    -65.1437         0.001607   
    285. D(C  14,C  13,Mo  0,C  15)    -27.6305         0.001607   
    286. D(H  41,C  14,C  13,Mo  0)   -123.6142         0.034064   
    287. D(C  15,C  14,C  13,C  12)     -2.2821         0.034064   
    288. D(H  41,C  14,C  13,C  12)   -176.7587         0.034064   
    289. D(Mo  0,C  14,C  13,H  42)    124.9581         0.034064   
    290. D(Mo  0,C  14,C  13,C  12)    -53.1444         0.034064   
    291. D(H  41,C  14,Mo  0,C  37)     -0.9392         0.001617   
    292. D(H  41,C  14,Mo  0,C  17)   -179.5139         0.001617   
    293. D(H  41,C  14,Mo  0,C  16)   -143.8460         0.001617   
    294. D(H  41,C  14,Mo  0,C  15)   -110.6700         0.001617   
    295. D(H  41,C  14,Mo  0,C  13)    115.1302         0.001617   
    296. D(H  41,C  14,Mo  0,C  12)    144.1419         0.001617   
    297. D(H  41,C  14,Mo  0,P   4)     98.8243         0.001617   
    298. D(C  15,C  14,Mo  0,C  37)    109.7308         0.001617   
    299. D(C  15,C  14,Mo  0,C  13)   -134.1998         0.001617   
    300. D(C  15,C  14,Mo  0,P   4)   -150.5057         0.001617   
    301. D(C  13,C  14,Mo  0,C  36)    167.4964         0.001617   
    302. D(C  13,C  14,Mo  0,C  17)     65.3559         0.001617   
    303. D(C  13,C  14,Mo  0,C  16)    101.0237         0.001617   
    304. D(C  13,C  14,Mo  0,C  37)   -116.0694         0.001617   
    305. D(H  41,C  14,Mo  0,C  36)    -77.3734         0.001617   
    306. D(C  13,C  14,Mo  0,C  15)    134.1998         0.001617   
    307. D(C  13,C  14,Mo  0,C  12)     29.0116         0.001617   
    308. D(C  15,C  14,Mo  0,C  12)   -105.1881         0.001617   
    309. D(C  15,C  14,C  13,Mo  0)     50.8623         0.034064   
    310. D(C  15,C  14,Mo  0,C  36)     33.2966         0.001617   
    311. D(C  15,C  14,C  13,H  42)    175.8205         0.034064   
    312. D(C  13,C  14,Mo  0,P   4)    -16.3059         0.001617   
    313. D(C  15,C  14,Mo  0,C  17)    -68.8439         0.001617   
    314. D(C  15,C  14,Mo  0,C  16)    -33.1760         0.001617   
    315. D(H  41,C  14,C  13,H  42)      1.3439         0.034064   
    316. D(H  38,C  15,C  14,H  41)     -4.8610         0.025392   
    317. D(H  38,C  15,C  14,C  13)   -179.3497         0.025392   
    318. D(H  38,C  15,C  14,Mo  0)   -125.6828         0.025392   
    319. D(C  16,C  15,C  14,C  13)     10.2030         0.025392   
    320. D(C  16,C  15,C  14,Mo  0)     63.8699         0.025392   
    321. D(Mo  0,C  15,C  14,H  41)    120.8218         0.025392   
    322. D(H  38,C  15,Mo  0,C  37)     44.0848         0.001784   
    323. D(H  38,C  15,Mo  0,C  36)    -37.8888         0.001784   
    324. D(H  38,C  15,Mo  0,C  17)   -144.8656         0.001784   
    325. D(H  38,C  15,Mo  0,C  16)   -116.6166         0.001784   
    326. D(H  38,C  15,Mo  0,C  14)    118.6260         0.001784   
    327. D(H  38,C  15,Mo  0,C  13)    144.8777         0.001784   
    328. D(H  38,C  15,Mo  0,C  12)    179.9590         0.001784   
    329. D(H  38,C  15,Mo  0,P   4)   -162.4050         0.001784   
    330. D(C  16,C  15,Mo  0,C  37)    160.7015         0.001784   
    331. D(C  16,C  15,Mo  0,C  36)     78.7279         0.001784   
    332. D(C  16,C  15,Mo  0,C  17)    -28.2489         0.001784   
    333. D(C  16,C  15,Mo  0,C  14)   -124.7574         0.001784   
    334. D(C  16,C  15,Mo  0,C  13)    -98.5057         0.001784   
    335. D(C  16,C  15,Mo  0,C  12)    -63.4243         0.001784   
    336. D(C  16,C  15,Mo  0,P   4)    -45.7884         0.001784   
    337. D(Mo  0,C  15,C  14,C  13)    -53.6669         0.025392   
    338. D(C  14,C  15,Mo  0,C  37)    -74.5411         0.001784   
    339. D(C  14,C  15,Mo  0,C  36)   -156.5147         0.001784   
    340. D(C  14,C  15,Mo  0,C  17)     96.5085         0.001784   
    341. D(C  16,C  15,C  14,H  41)   -175.3084         0.025392   
    342. D(C  14,C  15,Mo  0,C  16)    124.7574         0.001784   
    343. D(C  14,C  15,Mo  0,C  13)     26.2517         0.001784   
    344. D(C  14,C  15,Mo  0,C  12)     61.3331         0.001784   
    345. D(C  14,C  15,Mo  0,P   4)     78.9690         0.001784   
    346. D(H  39,C  16,C  15,H  38)      3.5116         0.022087   
    347. D(H  39,C  16,C  15,Mo  0)   -120.3369         0.022087   
    348. D(C  17,C  16,C  15,H  38)   -178.6860         0.022087   
    349. D(C  17,C  16,C  15,C  14)     -8.2761         0.022087   
    350. D(Mo  0,C  16,C  15,H  38)    123.8485         0.022087   
    351. D(Mo  0,C  16,C  15,C  14)    -65.7415         0.022087   
    352. D(H  39,C  16,Mo  0,C  37)     85.3617         0.001697   
    353. D(H  39,C  16,Mo  0,C  36)      5.3239         0.001697   
    354. D(H  39,C  16,Mo  0,C  17)   -115.9368         0.001697   
    355. D(H  39,C  16,Mo  0,C  15)    112.8626         0.001697   
    356. D(H  39,C  16,Mo  0,C  14)    144.9990         0.001697   
    357. D(H  39,C  16,Mo  0,C  13)    179.0762         0.001697   
    358. D(H  39,C  16,Mo  0,C  12)   -144.4130         0.001697   
    359. D(H  39,C  16,Mo  0,P   4)    -85.2722         0.001697   
    360. D(C  17,C  16,Mo  0,C  37)   -158.7015         0.001697   
    361. D(C  17,C  16,Mo  0,C  36)    121.2607         0.001697   
    362. D(C  17,C  16,Mo  0,C  15)   -131.2006         0.001697   
    363. D(C  17,C  16,Mo  0,C  14)    -99.0642         0.001697   
    364. D(C  17,C  16,Mo  0,C  13)    -64.9871         0.001697   
    365. D(C  17,C  16,Mo  0,C  12)    -28.4762         0.001697   
    366. D(C  17,C  16,Mo  0,P   4)     30.6646         0.001697   
    367. D(C  15,C  16,Mo  0,C  37)    -27.5009         0.001697   
    368. D(C  15,C  16,Mo  0,C  36)   -107.5387         0.001697   
    369. D(C  17,C  16,C  15,Mo  0)     57.4655         0.022087   
    370. D(C  15,C  16,Mo  0,C  17)    131.2006         0.001697   
    371. D(C  15,C  16,Mo  0,C  14)     32.1364         0.001697   
    372. D(C  15,C  16,Mo  0,C  13)     66.2136         0.001697   
    373. D(H  39,C  16,C  15,C  14)    173.9216         0.022087   
    374. D(C  15,C  16,Mo  0,C  12)    102.7244         0.001697   
    375. D(C  15,C  16,Mo  0,P   4)    161.8653         0.001697   
    376. D(H  40,C  17,C  16,H  39)     -0.4698         0.030411   
    377. D(H  40,C  17,C  16,C  15)   -178.2703         0.030411   
    378. D(H  40,C  17,C  16,Mo  0)   -123.0107         0.030411   
    379. D(C  12,C  17,C  16,C  15)     -1.5417         0.030411   
    380. D(C  12,C  17,C  16,Mo  0)     53.7178         0.030411   
    381. D(Mo  0,C  17,C  16,H  39)    122.5409         0.030411   
    382. D(H  40,C  17,C  12,C  13)   -173.6870         0.024952   
    383. D(H  40,C  17,C  12,N   7)     -8.6154         0.024952   
    384. D(H  40,C  17,C  12,Mo  0)    122.9388         0.024952   
    385. D(C  16,C  17,C  12,N   7)    174.6168         0.024952   
    386. D(C  16,C  17,C  12,Mo  0)    -53.8289         0.024952   
    387. D(Mo  0,C  17,C  12,C  13)     63.3742         0.024952   
    388. D(Mo  0,C  17,C  12,N   7)   -131.5543         0.024952   
    389. D(H  40,C  17,Mo  0,C  37)    176.0773         0.001643   
    390. D(H  40,C  17,Mo  0,C  36)     48.5889         0.001643   
    391. D(H  40,C  17,Mo  0,C  16)    114.7287         0.001643   
    392. D(H  40,C  17,Mo  0,C  15)    144.3971         0.001643   
    393. D(H  40,C  17,Mo  0,C  14)   -178.9906         0.001643   
    394. D(H  40,C  17,Mo  0,C  13)   -144.7347         0.001643   
    395. D(H  40,C  17,Mo  0,C  12)   -113.0665         0.001643   
    396. D(H  40,C  17,Mo  0,P   4)    -41.5320         0.001643   
    397. D(C  16,C  17,Mo  0,C  37)     61.3486         0.001643   
    398. D(C  16,C  17,Mo  0,C  36)    -66.1398         0.001643   
    399. D(C  16,C  17,Mo  0,C  15)     29.6685         0.001643   
    400. D(C  16,C  17,Mo  0,C  14)     66.2807         0.001643   
    401. D(C  16,C  17,C  12,C  13)      9.5452         0.024952   
    402. D(C  16,C  17,Mo  0,C  13)    100.5366         0.001643   
    403. D(C  16,C  17,Mo  0,C  12)    132.2048         0.001643   
    404. D(C  16,C  17,Mo  0,P   4)   -156.2606         0.001643   
    405. D(Mo  0,C  17,C  16,C  15)    -55.2596         0.030411   
    406. D(C  12,C  17,Mo  0,C  37)    -70.8562         0.001643   
    407. D(C  12,C  17,Mo  0,C  36)    161.6554         0.001643   
    408. D(C  12,C  17,Mo  0,C  16)   -132.2048         0.001643   
    409. D(C  12,C  17,C  16,H  39)    176.2588         0.030411   
    410. D(C  12,C  17,Mo  0,C  15)   -102.5363         0.001643   
    411. D(C  12,C  17,Mo  0,C  14)    -65.9241         0.001643   
    412. D(C  12,C  17,Mo  0,C  13)    -31.6682         0.001643   
    413. D(C  12,C  17,Mo  0,P   4)     71.5346         0.001643   
    414. D(C  26,C  18,N   8,C  11)    -93.9833         0.017284   
    415. D(C  26,C  18,N   8,C   9)     87.0653         0.017284   
    416. D(C  19,C  18,N   8,C  11)     84.2587         0.017284   
    417. D(C  19,C  18,N   8,C   9)    -94.6927         0.017284   
    418. D(H  45,C  19,C  18,C  26)    179.5644         0.028450   
    419. D(H  45,C  19,C  18,N   8)      1.3780         0.028450   
    420. D(C  20,C  19,C  18,C  26)     -0.1830         0.028450   
    421. D(C  20,C  19,C  18,N   8)   -178.3695         0.028450   
    422. D(C  22,C  20,C  19,H  45)   -179.7656         0.028250   
    423. D(C  22,C  20,C  19,C  18)     -0.0209         0.028250   
    424. D(H  21,C  20,C  19,H  45)      0.0240         0.028250   
    425. D(H  21,C  20,C  19,C  18)    179.7687         0.028250   
    426. D(C  24,C  22,C  20,H  21)   -179.7555         0.027580   
    427. D(C  24,C  22,C  20,C  19)      0.0329         0.027580   
    428. D(H  23,C  22,C  20,H  21)      0.0233         0.027580   
    429. D(H  23,C  22,C  20,C  19)    179.8117         0.027580   
    430. D(C  26,C  24,C  22,H  23)   -179.6235         0.027590   
    431. D(C  26,C  24,C  22,C  20)      0.1552         0.027590   
    432. D(H  25,C  24,C  22,H  23)      0.1201         0.027590   
    433. D(H  25,C  24,C  22,C  20)    179.8988         0.027590   
    434. D(H  46,C  26,C  24,H  25)      0.0272         0.028069   
    435. D(H  46,C  26,C  24,C  22)    179.7722         0.028069   
    436. D(C  18,C  26,C  24,H  25)    179.9072         0.028069   
    437. D(C  18,C  26,C  24,C  22)     -0.3478         0.028069   
    438. D(H  46,C  26,C  18,C  19)   -179.7514         0.028470   
    439. D(H  46,C  26,C  18,N   8)     -1.5734         0.028470   
    440. D(C  24,C  26,C  18,C  19)      0.3674         0.028470   
    441. D(C  24,C  26,C  18,N   8)    178.5454         0.028470   
    442. D(C  28,C  27,P   4,Mo  0)   -142.0688         0.004185   
    443. D(C  35,C  27,P   4,P   3)   -144.9862         0.004185   
    444. D(C  35,C  27,P   4,Mo  0)     34.9606         0.004185   
    445. D(C  28,C  27,P   4,P   3)     37.9844         0.004185   
    446. D(H  44,C  28,C  27,C  35)   -177.4872         0.025473   
    447. D(H  44,C  28,C  27,P   4)     -0.4479         0.025473   
    448. D(C  29,C  28,C  27,C  35)      0.9344         0.025473   
    449. D(C  29,C  28,C  27,P   4)    177.9737         0.025473   
    450. D(C  31,C  29,C  28,H  44)    178.1769         0.028498   
    451. D(C  31,C  29,C  28,C  27)     -0.2556         0.028498   
    452. D(H  30,C  29,C  28,H  44)     -0.9952         0.028498   
    453. D(H  30,C  29,C  28,C  27)   -179.4278         0.028498   
    454. D(C  33,C  31,C  29,H  30)    178.8703         0.027674   
    455. D(C  33,C  31,C  29,C  28)     -0.2975         0.027674   
    456. D(H  32,C  31,C  29,H  30)     -0.4920         0.027674   
    457. D(H  32,C  31,C  29,C  28)   -179.6597         0.027674   
    458. D(C  35,C  33,C  31,H  32)    179.5222         0.027596   
    459. D(C  35,C  33,C  31,C  29)      0.1606         0.027596   
    460. D(H  34,C  33,C  31,H  32)     -0.1331         0.027596   
    461. D(H  34,C  33,C  31,C  29)   -179.4948         0.027596   
    462. D(H  43,C  35,C  33,H  34)     -0.1178         0.028157   
    463. D(H  43,C  35,C  33,C  31)   -179.7743         0.028157   
    464. D(C  27,C  35,C  33,H  34)   -179.8143         0.028157   
    465. D(C  27,C  35,C  33,C  31)      0.5292         0.028157   
    466. D(H  43,C  35,C  27,C  28)    179.2362         0.025698   
    467. D(H  43,C  35,C  27,P   4)      2.1509         0.025698   
    468. D(C  33,C  35,C  27,C  28)     -1.0702         0.025698   
    469. D(C  33,C  35,C  27,P   4)   -178.1555         0.025698   
    -----------------------------------------------------------------

Number of atoms                         .... 47
Number of degrees of freedom            .... 469

         *************************************************************
         *                GEOMETRY OPTIMIZATION CYCLE   1            *
         *************************************************************
---------------------------------
CARTESIAN COORDINATES (ANGSTROEM)
---------------------------------
  Mo    10.234218   10.474723   14.720248
  Cl     6.595363    6.719986   15.811699
  Cl     3.745517    8.133702   17.248517
  P      7.172868   12.243529   16.538830
  P      9.116929   12.207173   15.854871
  O     11.090333   12.205602   12.246734
  O     12.907023   11.762442   15.707114
  N      7.182320    9.348680   15.987482
  N      5.419856   10.213554   16.902037
  C      6.648999   10.522767   16.422113
  C      6.277084    8.317667   16.216838
  C      5.177494    8.863119   16.770989
  C      8.427976    9.096563   15.354135
  C      8.472312    8.982111   13.916510
  C      9.643325    8.593337   13.297474
  C     10.822600    8.349071   14.046064
  C     10.723866    8.296550   15.477889
  C      9.537304    8.649934   16.120347
  C      4.490667   11.141573   17.489099
  C      4.476023   11.285305   18.865030
  C      3.558856   12.152748   19.433267
  H      3.530637   12.274845   20.508320
  C      2.678306   12.857524   18.625205
  H      1.960673   13.532506   19.074013
  C      2.707520   12.700329   17.247037
  H      2.017663   13.250914   16.620789
  C      3.618149   11.832316   16.667278
  C      9.716152   13.831995   16.351034
  C      9.335038   14.401250   17.569296
  C      9.838543   15.631540   17.951833
  H      9.544035   16.059559   18.902088
  C     10.729622   16.305038   17.129510
  H     11.126293   17.265665   17.434505
  C     11.122729   15.742800   15.923612
  H     11.824470   16.263943   15.284910
  C     10.624798   14.510192   15.535737
  C     11.932182   11.279629   15.366916
  C     10.744836   11.588907   13.138372
  H     11.733255    8.055796   13.546283
  H     11.588313    8.014456   16.064206
  H      9.468970    8.637906   17.200711
  H      9.687598    8.559748   12.216086
  H      7.595454    9.231675   13.335159
  H     10.942395   14.080397   14.593624
  H      8.662818   13.870167   18.232458
  H      5.169716   10.722760   19.477883
  H      3.654493   11.692786   15.593728

----------------------------
CARTESIAN COORDINATES (A.U.)
----------------------------
  NO LB      ZA    FRAG     MASS         X           Y           Z
   0 Mo   14.0000*   0    95.940   19.339869   19.794358   27.817237
   1 Cl   17.0000    0    35.453   12.463430   12.698933   29.879781
   2 Cl   17.0000    0    35.453    7.078001   15.370469   32.594973
   3 P    15.0000    0    30.974   13.554756   23.136917   31.253859
   4 P    15.0000    0    30.974   17.228499   23.068214   29.961364
   5 O     8.0000    0    15.999   20.957692   23.065245   23.142973
   6 O     8.0000    0    15.999   24.390739   22.227794   29.682144
   7 N     7.0000    0    14.007   13.572618   17.666445   30.211963
   8 N     7.0000    0    14.007   10.242044   19.300820   31.940221
   9 C     6.0000    0    12.011   12.564787   19.885148   31.033296
  10 C     6.0000    0    12.011   11.861970   15.718113   30.645383
  11 C     6.0000    0    12.011    9.784046   16.748868   31.692576
  12 C     6.0000    0    12.011   15.926567   17.190013   29.015110
  13 C     6.0000    0    12.011   16.010349   16.973730   26.298393
  14 C     6.0000    0    12.011   18.223243   16.239054   25.128584
  15 C     6.0000    0    12.011   20.451750   15.777458   26.543214
  16 C     6.0000    0    12.011   20.265170   15.678207   29.248971
  17 C     6.0000    0    12.011   18.022893   16.346006   30.463041
  18 C     6.0000    0    12.011    8.486131   21.054522   33.049607
  19 C     6.0000    0    12.011    8.458458   21.326136   35.649740
  20 C     6.0000    0    12.011    6.725263   22.965365   36.723553
  21 H     1.0000    0     1.008    6.671937   23.196095   38.755108
  22 C     6.0000    0    12.011    5.061265   24.297199   35.196537
  23 H     1.0000    0     1.008    3.705135   25.572730   36.044661
  24 C     6.0000    0    12.011    5.116471   24.000144   32.592177
  25 H     1.0000    0     1.008    3.812831   25.040598   31.408739
  26 C     6.0000    0    12.011    6.837311   22.359837   31.496591
  27 C     6.0000    0    12.011   18.360866   26.138682   30.898976
  28 C     6.0000    0    12.011   17.640665   27.214418   33.201158
  29 C     6.0000    0    12.011   18.592152   29.539330   33.924048
  30 H     1.0000    0     1.008   18.035612   30.348168   35.719770
  31 C     6.0000    0    12.011   20.276047   30.812056   32.370083
  32 H     1.0000    0     1.008   21.025647   32.627378   32.946440
  33 C     6.0000    0    12.011   21.018912   29.749581   30.091266
  34 H     1.0000    0     1.008   22.345010   30.734398   28.884294
  35 C     6.0000    0    12.011   20.077958   27.420289   29.358288
  36 C     6.0000    0    12.011   22.548556   21.315410   29.039263
  37 C     6.0000    0    12.011   20.304797   21.899860   24.827925
  38 H     1.0000    0     1.008   22.172639   15.223248   25.598765
  39 H     1.0000    0     1.008   21.898738   15.145127   30.356950
  40 H     1.0000    0     1.008   17.893760   16.323277   32.504633
  41 H     1.0000    0     1.008   18.306907   16.175579   23.085057
  42 H     1.0000    0     1.008   14.353328   17.445338   25.199798
  43 H     1.0000    0     1.008   20.678130   26.608094   27.577953
  44 H     1.0000    0     1.008   16.370354   26.210817   34.454352
  45 H     1.0000    0     1.008    9.769347   20.263080   36.807865
  46 H     1.0000    0     1.008    6.905991   22.096163   29.467875
* core charge reduced due to ECP

--------------------------------
INTERNAL COORDINATES (ANGSTROEM)
--------------------------------
 Mo     0   0   0     0.000000000000     0.00000000     0.00000000
 Cl     1   0   0     5.341402525142     0.00000000     0.00000000
 Cl     2   1   0     3.490653394065   110.83056480     0.00000000
 P      1   2   3     3.975899769720    72.22469091     3.32747037
 P      4   1   2     2.061187726564    27.64391411   165.37624260
 O      1   2   3     3.138016334257   137.27878068   264.33886742
 O      1   2   3     3.126661365249   143.84086833   101.93934584
 N      2   1   3     2.699157336758    34.97159390   357.25709745
 N      8   2   1     2.165801753438   103.85383307   178.03886461
 C      9   8   2     1.355260948893    37.20609699   179.51705959
 C      8   2   1     1.391058660374    31.50469712   178.22304817
 C     11   8   2     1.346736567858   107.39674071   180.88980207
 C      8   2   1     1.419982490890    89.35832314   359.72453385
 C     13   8   2     1.442855010673   119.04177431    81.44656706
 C     14  13   8     1.380442769021   119.68382610   187.07017563
 C     15  14  13     1.418006485345   121.14802149   357.71791243
 C     16  15  14     1.436185812777   118.38803378    10.20296460
 C     17  16  15     1.394834009144   120.55843342   351.72392506
 C      9   8   2     1.438489921385   162.86403065   176.67310372
 C     19   9   8     1.383495374521   118.66836068   267.42383062
 C     20  19   9     1.384393712896   118.70654987   181.63053206
 H     21  20  19     1.082332177374   119.71304434   179.76871706
 C     21  20  19     1.387458723177   119.97930538     0.00000000
 H     23  21  20     1.082601701401   119.73280660   179.81165864
 C     23  21  20     1.387411533052   120.50463778     0.03286919
 H     25  23  21     1.082235224052   120.24791496   179.89881897
 C     19   9   8     1.383402800494   119.14891511    89.18178934
 C      5   4   1     1.801469527353   101.91306261   179.94781332
 C     28   5   4     1.397662847995   121.11250185    37.98438254
 C     29  28   5     1.383280638733   120.26749061   177.97372964
 H     30  29  28     1.083014215719   119.68045593   180.57224902
 C     30  29  28     1.387024317225   120.11626257   359.74435033
 H     32  30  29     1.083131601143   119.93291871   180.34026712
 C     32  30  29     1.387384109934   120.03758960   359.70254186
 H     34  32  30     1.082575956843   120.09201832   180.50518816
 C     34  32  30     1.384812181507   120.15105812     0.16057231
 C      7   1   2     1.139806144682     1.19154630   355.08332827
 C      6   1   2     1.137848506207     1.86851322    51.75437893
 H     16  15  14     1.079390477358   120.26521140   180.65030680
 H     17  16  15     1.081948827410   119.66120006   173.92157938
 H     18  17  16     1.082589756480   120.69928780   181.72969384
 H     15  14  13     1.082815000817   119.42356607   183.24131756
 H     14  13   8     1.081263671572   119.50388032     8.94309716
 H     36  34  32     1.083129032573   119.43192640   180.22568164
 H     29  28   5     1.083380228513   120.20450573   359.55212527
 H     20  19   9     1.083169264189   120.13030003     1.37795588
 H     27  19   9     1.083189323127   120.21800066   358.42659180

---------------------------
INTERNAL COORDINATES (A.U.)
---------------------------
 Mo     0   0   0     0.000000000000     0.00000000     0.00000000
 Cl     1   0   0    10.093787943554     0.00000000     0.00000000
 Cl     2   1   0     6.596378943225   110.83056480     0.00000000
 P      1   2   3     7.513361700691    72.22469091     3.32747037
 P      4   1   2     3.895080313806    27.64391411   165.37624260
 O      1   2   3     5.929991475517   137.27878068   264.33886742
 O      1   2   3     5.908533693833   143.84086833   101.93934584
 N      2   1   3     5.100668158837    34.97159390   357.25709745
 N      8   2   1     4.092772174365   103.85383307   178.03886461
 C      9   8   2     2.561072033406    37.20609699   179.51705959
 C      8   2   1     2.628719904326    31.50469712   178.22304817
 C     11   8   2     2.544963287788   107.39674071   180.88980207
 C      8   2   1     2.683378022745    89.35832314   359.72453385
 C     13   8   2     2.726600821129   119.04177431    81.44656706
 C     14  13   8     2.608658777001   119.68382610   187.07017563
 C     15  14  13     2.679643913427   121.14802149   357.71791243
 C     16  15  14     2.713997863572   118.38803378    10.20296460
 C     17  16  15     2.635854279561   120.55843342   351.72392506
 C      9   8   2     2.718351997823   162.86403065   176.67310372
 C     19   9   8     2.614427365392   118.66836068   267.42383062
 C     20  19   9     2.616124978897   118.70654987   181.63053206
 H     21  20  19     2.045311401167   119.71304434   179.76871706
 C     21  20  19     2.621917008925   119.97930538     0.00000000
 H     23  21  20     2.045820727766   119.73280660   179.81165864
 C     23  21  20     2.621827832512   120.50463778     0.03286919
 H     25  23  21     2.045128185940   120.24791496   179.89881897
 C     19   9   8     2.614252425833   119.14891511    89.18178934
 C      5   4   1     3.404284045302   101.91306261   179.94781332
 C     28   5   4     2.641200010267   121.11250185    37.98438254
 C     29  28   5     2.614021573561   120.26749061   177.97372964
 H     30  29  28     2.046600266853   119.68045593   180.57224902
 C     30  29  28     2.621096100645   120.11626257   359.74435033
 H     32  30  29     2.046822093156   119.93291871   180.34026712
 C     32  30  29     2.621776010329   120.03758960   359.70254186
 H     34  32  30     2.045772077601   120.09201832   180.50518816
 C     34  32  30     2.616915769966   120.15105812     0.16057231
 C      7   1   2     2.153921459209     1.19154630   355.08332827
 C      6   1   2     2.150222058623     1.86851322    51.75437893
 H     16  15  14     2.039752393769   120.26521140   180.65030680
 H     17  16  15     2.044586974722   119.66120006   173.92157938
 H     18  17  16     2.045798155136   120.69928780   181.72969384
 H     15  14  13     2.046223805246   119.42356607   183.24131756
 H     14  13   8     2.043292217829   119.50388032     8.94309716
 H     36  34  32     2.046817239262   119.43192640   180.22568164
 H     29  28   5     2.047291930795   120.20450573   359.55212527
 H     20  19   9     2.046893265998   120.13030003     1.37795588
 H     27  19   9     2.046931171897   120.21800066   358.42659180

---------------------
BASIS SET INFORMATION
---------------------
There are 7 groups of distinct atoms

 Group   1 Type Mo  : 7s7p5d1f contracted to 6s4p3d1f pattern {211111/4111/311/1}
 Group   2 Type Cl  : 14s9p3d1f contracted to 5s5p2d1f pattern {73211/51111/21/1}
 Group   3 Type P   : 14s9p3d1f contracted to 5s5p2d1f pattern {73211/51111/21/1}
 Group   4 Type O   : 11s6p2d1f contracted to 5s3p2d1f pattern {62111/411/11/1}
 Group   5 Type N   : 11s6p2d1f contracted to 5s3p2d1f pattern {62111/411/11/1}
 Group   6 Type C   : 11s6p2d1f contracted to 5s3p2d1f pattern {62111/411/11/1}
 Group   7 Type H   : 5s1p contracted to 3s1p pattern {311/1}

Atom   0Mo   basis set group =>   1
Atom   1Cl   basis set group =>   2
Atom   2Cl   basis set group =>   2
Atom   3P    basis set group =>   3
Atom   4P    basis set group =>   3
Atom   5O    basis set group =>   4
Atom   6O    basis set group =>   4
Atom   7N    basis set group =>   5
Atom   8N    basis set group =>   5
Atom   9C    basis set group =>   6
Atom  10C    basis set group =>   6
Atom  11C    basis set group =>   6
Atom  12C    basis set group =>   6
Atom  13C    basis set group =>   6
Atom  14C    basis set group =>   6
Atom  15C    basis set group =>   6
Atom  16C    basis set group =>   6
Atom  17C    basis set group =>   6
Atom  18C    basis set group =>   6
Atom  19C    basis set group =>   6
Atom  20C    basis set group =>   6
Atom  21H    basis set group =>   7
Atom  22C    basis set group =>   6
Atom  23H    basis set group =>   7
Atom  24C    basis set group =>   6
Atom  25H    basis set group =>   7
Atom  26C    basis set group =>   6
Atom  27C    basis set group =>   6
Atom  28C    basis set group =>   6
Atom  29C    basis set group =>   6
Atom  30H    basis set group =>   7
Atom  31C    basis set group =>   6
Atom  32H    basis set group =>   7
Atom  33C    basis set group =>   6
Atom  34H    basis set group =>   7
Atom  35C    basis set group =>   6
Atom  36C    basis set group =>   6
Atom  37C    basis set group =>   6
Atom  38H    basis set group =>   7
Atom  39H    basis set group =>   7
Atom  40H    basis set group =>   7
Atom  41H    basis set group =>   7
Atom  42H    basis set group =>   7
Atom  43H    basis set group =>   7
Atom  44H    basis set group =>   7
Atom  45H    basis set group =>   7
Atom  46H    basis set group =>   7
---------------------------------
AUXILIARY/J BASIS SET INFORMATION
---------------------------------
There are 7 groups of distinct atoms

 Group   1 Type Mo  : 11s5p5d3f3g contracted to 8s5p5d2f3g pattern {41111111/11111/11111/21/111}
 Group   2 Type Cl  : 14s5p5d2f1g contracted to 8s4p3d1f1g pattern {71111111/2111/311/2/1}
 Group   3 Type P   : 14s5p5d2f1g contracted to 8s4p3d1f1g pattern {71111111/2111/311/2/1}
 Group   4 Type O   : 12s5p4d2f1g contracted to 6s4p3d1f1g pattern {711111/2111/211/2/1}
 Group   5 Type N   : 12s5p4d2f1g contracted to 6s4p3d1f1g pattern {711111/2111/211/2/1}
 Group   6 Type C   : 12s5p4d2f1g contracted to 6s4p3d1f1g pattern {711111/2111/211/2/1}
 Group   7 Type H   : 5s2p1d contracted to 3s1p1d pattern {311/2/1}

Atom   0Mo   basis set group =>   1
Atom   1Cl   basis set group =>   2
Atom   2Cl   basis set group =>   2
Atom   3P    basis set group =>   3
Atom   4P    basis set group =>   3
Atom   5O    basis set group =>   4
Atom   6O    basis set group =>   4
Atom   7N    basis set group =>   5
Atom   8N    basis set group =>   5
Atom   9C    basis set group =>   6
Atom  10C    basis set group =>   6
Atom  11C    basis set group =>   6
Atom  12C    basis set group =>   6
Atom  13C    basis set group =>   6
Atom  14C    basis set group =>   6
Atom  15C    basis set group =>   6
Atom  16C    basis set group =>   6
Atom  17C    basis set group =>   6
Atom  18C    basis set group =>   6
Atom  19C    basis set group =>   6
Atom  20C    basis set group =>   6
Atom  21H    basis set group =>   7
Atom  22C    basis set group =>   6
Atom  23H    basis set group =>   7
Atom  24C    basis set group =>   6
Atom  25H    basis set group =>   7
Atom  26C    basis set group =>   6
Atom  27C    basis set group =>   6
Atom  28C    basis set group =>   6
Atom  29C    basis set group =>   6
Atom  30H    basis set group =>   7
Atom  31C    basis set group =>   6
Atom  32H    basis set group =>   7
Atom  33C    basis set group =>   6
Atom  34H    basis set group =>   7
Atom  35C    basis set group =>   6
Atom  36C    basis set group =>   6
Atom  37C    basis set group =>   6
Atom  38H    basis set group =>   7
Atom  39H    basis set group =>   7
Atom  40H    basis set group =>   7
Atom  41H    basis set group =>   7
Atom  42H    basis set group =>   7
Atom  43H    basis set group =>   7
Atom  44H    basis set group =>   7
Atom  45H    basis set group =>   7
Atom  46H    basis set group =>   7
---------------------------------
AUXILIARY/C BASIS SET INFORMATION
---------------------------------
There are 7 groups of distinct atoms

 Group   1 Type Mo  : 8s7p6d5f3g1h contracted to 8s7p6d5f3g1h pattern {11111111/1111111/111111/11111/111/1}
 Group   2 Type Cl  : 10s7p7d3f contracted to 8s5p5d2f pattern {31111111/31111/31111/12}
 Group   3 Type P   : 10s7p7d3f contracted to 8s5p5d2f pattern {31111111/31111/31111/12}
 Group   4 Type O   : 8s6p5d3f contracted to 6s5p4d1f pattern {311111/21111/2111/3}
 Group   5 Type N   : 8s6p5d3f contracted to 6s5p4d1f pattern {311111/21111/2111/3}
 Group   6 Type C   : 8s6p5d3f contracted to 6s5p4d1f pattern {311111/21111/2111/3}
 Group   7 Type H   : 4s3p2d contracted to 3s2p1d pattern {211/21/2}

Atom   0Mo   basis set group =>   1
Atom   1Cl   basis set group =>   2
Atom   2Cl   basis set group =>   2
Atom   3P    basis set group =>   3
Atom   4P    basis set group =>   3
Atom   5O    basis set group =>   4
Atom   6O    basis set group =>   4
Atom   7N    basis set group =>   5
Atom   8N    basis set group =>   5
Atom   9C    basis set group =>   6
Atom  10C    basis set group =>   6
Atom  11C    basis set group =>   6
Atom  12C    basis set group =>   6
Atom  13C    basis set group =>   6
Atom  14C    basis set group =>   6
Atom  15C    basis set group =>   6
Atom  16C    basis set group =>   6
Atom  17C    basis set group =>   6
Atom  18C    basis set group =>   6
Atom  19C    basis set group =>   6
Atom  20C    basis set group =>   6
Atom  21H    basis set group =>   7
Atom  22C    basis set group =>   6
Atom  23H    basis set group =>   7
Atom  24C    basis set group =>   6
Atom  25H    basis set group =>   7
Atom  26C    basis set group =>   6
Atom  27C    basis set group =>   6
Atom  28C    basis set group =>   6
Atom  29C    basis set group =>   6
Atom  30H    basis set group =>   7
Atom  31C    basis set group =>   6
Atom  32H    basis set group =>   7
Atom  33C    basis set group =>   6
Atom  34H    basis set group =>   7
Atom  35C    basis set group =>   6
Atom  36C    basis set group =>   6
Atom  37C    basis set group =>   6
Atom  38H    basis set group =>   7
Atom  39H    basis set group =>   7
Atom  40H    basis set group =>   7
Atom  41H    basis set group =>   7
Atom  42H    basis set group =>   7
Atom  43H    basis set group =>   7
Atom  44H    basis set group =>   7
Atom  45H    basis set group =>   7
Atom  46H    basis set group =>   7
-------------------------
ECP PARAMETER INFORMATION
-------------------------

 Group 1, Type Mo ECP Def2-ECP (replacing 28 core electrons, lmax=3)

Atom   0Mo   ECP group =>   1

------------------------------------------------------------------------------
                           ORCA GTO INTEGRAL CALCULATION
                           -- RI-GTO INTEGRALS CHOSEN --
------------------------------------------------------------------------------

                         BASIS SET STATISTICS AND STARTUP INFO

Gaussian basis set:
 # of primitive gaussian shells          ...  758
 # of primitive gaussian functions       ... 1674
 # of contracted shells                  ...  423
 # of contracted basis functions         ... 1115
 Highest angular momentum                ...    3
 Maximum contraction depth               ...    7
Auxiliary gaussian basis set:
 # of primitive gaussian shells          ...  903
 # of primitive gaussian functions       ... 2537
 # of contracted shells                  ...  571
 # of contracted aux-basis functions     ... 1781
 Highest angular momentum                ...    4
 Maximum contraction depth               ...    7
Ratio of auxiliary to basis functions    ...  1.60
Integral package used                  ... LIBINT
 One Electron integrals                  
   ECP integrals                         ... done
 Ordering auxiliary basis shells         ... done
 Integral threshhold             Thresh  ...  2.500e-11
 Primitive cut-off               TCut    ...  2.500e-12
 Pre-screening matrix                    ... done
 Shell pair data                         ... 
 Ordering of the shell pairs             ... done (   0.009 sec) 55306 of 89676 pairs
 Determination of significant pairs      ... done (   0.000 sec)
 Creation of shell pair data             ... done (   0.006 sec)
 Storage of shell pair data              ... done (   0.006 sec)
 Shell pair data done in (   0.022 sec)
 Computing two index integrals           ... done
 Cholesky decomposition of the V-matrix  ... done


Timings:
 Total evaluation time                   ...   3.467 sec (  0.058 min)
 One electron matrix time                ...   2.423 sec (  0.040 min) = 69.9%
 Schwartz matrix evaluation time         ...   0.865 sec (  0.014 min) = 24.9%
 Two index repulsion integral time       ...   0.059 sec (  0.001 min) =  1.7%
 Cholesky decomposition of V             ...   0.061 sec (  0.001 min) =  1.8%
 Three index repulsion integral time     ...   0.000 sec (  0.000 min) =  0.0%

-------------------------------------------------------------------------------
                                 ORCA SCF
-------------------------------------------------------------------------------

------------
SCF SETTINGS
------------
Hamiltonian:
 Density Functional     Method          .... DFT(GTOs)
 Exchange Functional    Exchange        .... WB97X-D3
 Correlation Functional Correlation     .... WB97X-D3
 Gradients option       PostSCFGGA      .... off
 Hybrid DFT is turned on
   Fraction HF Exchange ScalHFX         ....  0.195728
   Scaling of DF-GGA-X  ScalDFX         ....  0.000000
   Scaling of DF-GGA-C  ScalDFC         ....  1.000000
   Scaling of DF-LDA-C  ScalLDAC        ....  1.000000
   Perturbative correction              ....  0.000000
   Density functional embedding theory  .... OFF
 Long-range corrected/Screened/Range-Separated Hybrid DFT is turned on
   Amount of maximum screened exact exchange              ....  0.804272
   Range separation parameter mu (erf(mu*r12)/r12)        ....  0.250000
 RI-approximation to the Coulomb term is turned on
   Number of auxiliary basis functions  .... 1781
   RIJ-COSX (HFX calculated with COS-X)).... on


General Settings:
 Integral files         IntName         .... mo4
 Hartree-Fock type      HFTyp           .... RHF
 Total Charge           Charge          ....    1
 Multiplicity           Mult            ....    1
 Number of Electrons    NEL             ....  260
 Basis Dimension        Dim             .... 1115
 Nuclear Repulsion      ENuc            ....   4062.2459645213 Eh

Convergence Acceleration:
 DIIS                   CNVDIIS         .... on
   Start iteration      DIISMaxIt       ....    12
   Startup error        DIISStart       ....  0.200000
   # of expansion vecs  DIISMaxEq       ....     5
   Bias factor          DIISBfac        ....   1.050
   Max. coefficient     DIISMaxC        ....  10.000
 Newton-Raphson         CNVNR           .... off
 SOSCF                  CNVSOSCF        .... off
 Level Shifting         CNVShift        .... on
   Level shift para.    LevelShift      ....    0.2500
   Turn off err/grad.   ShiftErr        ....    0.0010
 Zerner damping         CNVZerner       .... off
 Static damping         CNVDamp         .... on
   Fraction old density DampFac         ....    0.7000
   Max. Damping (<1)    DampMax         ....    0.9800
   Min. Damping (>=0)   DampMin         ....    0.0000
   Turn off err/grad.   DampErr         ....    0.1000
 Fernandez-Rico         CNVRico         .... off

SCF Procedure:
 Maximum # iterations   MaxIter         ....   125
 SCF integral mode      SCFMode         .... Direct
   Integral package                     .... LIBINT
 Reset frequency        DirectResetFreq ....    20
 Integral Threshold     Thresh          ....  2.500e-11 Eh
 Primitive CutOff       TCut            ....  2.500e-12 Eh

Convergence Tolerance:
 Convergence Check Mode ConvCheckMode   .... Total+1el-Energy
 Convergence forced     ConvForced      .... 1
 Energy Change          TolE            ....  1.000e-08 Eh
 1-El. energy change                    ....  1.000e-05 Eh
 DIIS Error             TolErr          ....  5.000e-07


Diagonalization of the overlap matrix:
Smallest eigenvalue                        ... 5.977e-06
Time for diagonalization                   ...    0.351 sec
Threshold for overlap eigenvalues          ... 1.000e-08
Number of eigenvalues below threshold      ... 0
Time for construction of square roots      ...    0.197 sec
Total time needed                          ...    0.554 sec

-------------------
DFT GRID GENERATION
-------------------

General Integration Accuracy     IntAcc      ...  5.340
Radial Grid Type                 RadialGrid  ... Gauss-Chebyshev
Angular Grid (max. acc.)         AngularGrid ... Lebedev-590
Angular grid pruning method      GridPruning ... 3 (G Style)
Weight generation scheme         WeightScheme... Becke
Basis function cutoff            BFCut       ...    1.0000e-11
Integration weight cutoff        WCut        ...    1.0000e-14
Grids for H and He will be reduced by one unit

# of grid points (after initial pruning)     ... 707400 (   0.5 sec)
# of grid points (after weights+screening)   ... 607817 (   5.9 sec)
nearest neighbour list constructed           ...    0.0 sec
Grid point re-assignment to atoms done       ...    0.1 sec
Grid point division into batches done        ...    6.1 sec
Reduced shell lists constructed in   18.4 sec

Total number of grid points                  ...   607817
Total number of batches                      ...     9520
Average number of points per batch           ...       63
Average number of grid points per atom       ...    12932
Average number of shells per batch           ...   136.08 (32.17%)
Average number of basis functions per batch  ...   348.60 (31.26%)
Average number of large shells per batch     ...    84.38 (62.01%)
Average number of large basis fcns per batch ...   219.73 (63.03%)
Maximum spatial batch extension              ...  21.93, 24.96, 22.10 au
Average spatial batch extension              ...   1.61,  1.62,  1.59 au

Time for grid setup =   24.860 sec

------------------------------
INITIAL GUESS: MODEL POTENTIAL
------------------------------
Loading Hartree-Fock densities                     ... done
  calling /home/surfacechem/public/r_tonner/chemsoft/lx24-em64t/orca_4.2.1/orca_4_2_1_linux_x86-64_shared_openmpi314/orca mo4_atom42.inp > mo4_atom42.out in order to generate an atomic fitting density for atom 0 (Mo with ECP) on-the-fly... 
    atom 0 (Mo), assumed electronic state with S=5: 1s2 2s2 2p6 3s2 3p6 4s2 3d10 4p6 5s2 4d4           ... done
Calculating cut-offs                               ... done
Setting up the integral package                    ... done
Initializing the effective Hamiltonian             ... done
Starting the Coulomb interaction                   ... done (   5.6 sec)
Reading the grid                                   ... done
Mapping shells                                     ... done
Starting the XC term evaluation                    ... done (  23.5 sec)
  promolecular density results
     # of electrons  =    288.993059930
     EX              =   -370.805780548
     EC              =    -10.879764718
     EX+EC           =   -381.685545266
Transforming the Hamiltonian                       ... done (   0.1 sec)
Diagonalizing the Hamiltonian                      ... done (   0.2 sec)
Back transforming the eigenvectors                 ... done (   0.1 sec)
Now organizing SCF variables                       ... done
                      ------------------
                      INITIAL GUESS DONE (  56.2 sec)
                      ------------------
--------------------
COSX GRID GENERATION
--------------------

General Integration Accuracy     IntAcc      ...  3.670
Radial Grid Type                 RadialGrid  ... Gauss-Chebyshev
Angular Grid (max. acc.)         AngularGrid ... Lebedev-50
Angular grid pruning method      GridPruning ... 3 (G Style)
Weight generation scheme         WeightScheme... Becke
Basis function cutoff            BFCut       ...    1.0000e-11
Integration weight cutoff        WCut        ...    1.0000e-14
Grids for H and He will be reduced by one unit

# of grid points (after initial pruning)     ...  30438 (   0.0 sec)
# of grid points (after weights+screening)   ...  27307 (   0.2 sec)
nearest neighbour list constructed           ...    0.0 sec
Grid point re-assignment to atoms done       ...    0.0 sec
Grid point division into batches done        ...    0.0 sec
Reduced shell lists constructed in    0.7 sec

Total number of grid points                  ...    27307
Total number of batches                      ...      441
Average number of points per batch           ...       61
Average number of grid points per atom       ...      581
Average number of shells per batch           ...   170.99 (40.42%)
Average number of basis functions per batch  ...   445.54 (39.96%)
Average number of large shells per batch     ...   107.96 (63.14%)
Average number of large basis fcns per batch ...   285.29 (64.03%)
Maximum spatial batch extension              ...  23.10, 23.36, 26.98 au
Average spatial batch extension              ...   4.21,  4.18,  4.18 au

Overlap Fitting                  UseSFitting ... on
Constructing numerical overlap ... done (      0.6 sec)
Inverting numerical overlap    ... done (      0.0 sec)
Obtaining analytic overlap     ... done (      0.0 sec)
Final contraction and storage  ... done (      0.1 sec)


General Integration Accuracy     IntAcc      ...  4.010
Radial Grid Type                 RadialGrid  ... Gauss-Chebyshev
Angular Grid (max. acc.)         AngularGrid ... Lebedev-110
Angular grid pruning method      GridPruning ... 3 (G Style)
Weight generation scheme         WeightScheme... Becke
Basis function cutoff            BFCut       ...    1.0000e-11
Integration weight cutoff        WCut        ...    1.0000e-14
Grids for H and He will be reduced by one unit

# of grid points (after initial pruning)     ...  59112 (   0.0 sec)
# of grid points (after weights+screening)   ...  52526 (   0.5 sec)
nearest neighbour list constructed           ...    0.0 sec
Grid point re-assignment to atoms done       ...    0.0 sec
Grid point division into batches done        ...    0.0 sec
Reduced shell lists constructed in    1.3 sec

Total number of grid points                  ...    52526
Total number of batches                      ...      843
Average number of points per batch           ...       62
Average number of grid points per atom       ...     1118
Average number of shells per batch           ...   162.19 (38.34%)
Average number of basis functions per batch  ...   421.77 (37.83%)
Average number of large shells per batch     ...   102.59 (63.25%)
Average number of large basis fcns per batch ...   270.78 (64.20%)
Maximum spatial batch extension              ...  19.91, 21.84, 22.40 au
Average spatial batch extension              ...   3.49,  3.53,  3.49 au

Overlap Fitting                  UseSFitting ... on
Constructing numerical overlap ... done (      1.0 sec)
Inverting numerical overlap    ... done (      0.0 sec)
Obtaining analytic overlap     ... done (      0.0 sec)
Final contraction and storage  ... done (      0.1 sec)


General Integration Accuracy     IntAcc      ...  4.340
Radial Grid Type                 RadialGrid  ... Gauss-Chebyshev
Angular Grid (max. acc.)         AngularGrid ... Lebedev-302
Angular grid pruning method      GridPruning ... 3 (G Style)
Weight generation scheme         WeightScheme... Becke
Basis function cutoff            BFCut       ...    1.0000e-11
Integration weight cutoff        WCut        ...    1.0000e-14
Grids for H and He will be reduced by one unit

# of grid points (after initial pruning)     ... 223866 (   0.1 sec)
# of grid points (after weights+screening)   ... 194209 (   1.8 sec)
nearest neighbour list constructed           ...    0.0 sec
Grid point re-assignment to atoms done       ...    0.0 sec
Grid point division into batches done        ...    0.6 sec
Reduced shell lists constructed in    4.9 sec

Total number of grid points                  ...   194209
Total number of batches                      ...     3059
Average number of points per batch           ...       63
Average number of grid points per atom       ...     4132
Average number of shells per batch           ...   145.34 (34.36%)
Average number of basis functions per batch  ...   374.53 (33.59%)
Average number of large shells per batch     ...    90.92 (62.55%)
Average number of large basis fcns per batch ...   237.95 (63.53%)
Maximum spatial batch extension              ...  20.42, 19.98, 19.47 au
Average spatial batch extension              ...   2.34,  2.35,  2.31 au

Overlap Fitting                  UseSFitting ... on
Constructing numerical overlap ... done (      3.1 sec)
Inverting numerical overlap    ... done (      0.0 sec)
Obtaining analytic overlap     ... done (      0.0 sec)
Final contraction and storage  ... done (      0.1 sec)

Time for X-Grid setup             =   14.799 sec
--------------
SCF ITERATIONS
--------------
ITER       Energy         Delta-E        Max-DP      RMS-DP      [F,P]     Damp
               ***  Starting incremental Fock matrix formation  ***
  0  -2816.0188009329   0.000000000000 0.11334230  0.00064533  0.4597965 0.7000
  1  -2816.3083908319  -0.289589898910 0.07457215  0.00048161  0.3058176 0.7000
  2  -2816.4352043783  -0.126813546435 0.03308559  0.00027612  0.2047900 0.7000
                               ***Turning on DIIS***
[...]
  H      3.557558   12.272253   20.521327
  C      2.711907   12.870362   18.640248
  H      2.001186   13.551084   19.091244
  C      2.739529   12.718046   17.261540
  H      2.055069   13.277017   16.636805
  C      3.641348   11.843138   16.678965
  C      9.727452   13.811194   16.390159
  C      9.370611   14.401722   17.606093
  C      9.834274   15.664974   17.925818
  H      9.559105   16.115001   18.871392
  C     10.657361   16.347356   17.041297
  H     11.019323   17.336198   17.295104
  C     11.026977   15.762736   15.838268
  H     11.673028   16.293859   15.150960
  C     10.572238   14.496938   15.513582
  C     11.948100   11.224007   15.457623
  C     10.813266   11.606070   13.231966
  H     11.747958    8.078235   13.560591
  H     11.543246    7.902460   16.072170
  H      9.445565    8.533864   17.188446
  H      9.713641    8.648000   12.198995
  H      7.621709    9.310210   13.303997
  H     10.864925   14.050021   14.571331
  H      8.745715   13.867238   18.311472
  H      5.178769   10.703539   19.487261
  H      3.674619   11.705204   15.605059

----------------------------
CARTESIAN COORDINATES (A.U.)
----------------------------
  NO LB      ZA    FRAG     MASS         X           Y           Z
   0 Mo   14.0000*   0    95.940   19.385008   19.771629   27.873898
   1 Cl   17.0000    0    35.453   12.326195   12.713210   29.672089
   2 Cl   17.0000    0    35.453    6.998265   15.411797   32.495241
   3 P    15.0000    0    30.974   13.665936   23.073490   31.420586
   4 P    15.0000    0    30.974   17.291040   23.002174   30.091367
   5 O     8.0000    0    15.999   21.148211   23.158323   23.375599
   6 O     8.0000    0    15.999   24.441534   22.072144   29.884423
   7 N     7.0000    0    14.007   13.544575   17.627739   30.175939
   8 N     7.0000    0    14.007   10.249514   19.283098   31.940221
   9 C     6.0000    0    12.011   12.586302   19.817095   31.072637
  10 C     6.0000    0    12.011   11.795094   15.712555   30.539333
  11 C     6.0000    0    12.011    9.734442   16.752628   31.630337
  12 C     6.0000    0    12.011   15.910271   17.177980   28.982204
  13 C     6.0000    0    12.011   16.032835   17.054983   26.252657
  14 C     6.0000    0    12.011   18.243433   16.336764   25.094390
  15 C     6.0000    0    12.011   20.466015   15.801141   26.554244
  16 C     6.0000    0    12.011   20.213857   15.541587   29.253815
  17 C     6.0000    0    12.011   18.004579   16.223578   30.444225
  18 C     6.0000    0    12.011    8.515162   21.053105   33.068052
  19 C     6.0000    0    12.011    8.489687   21.309898   35.669604
  20 C     6.0000    0    12.011    6.774524   22.966355   36.747571
  21 H     1.0000    0     1.008    6.722811   23.191198   38.779687
  22 C     6.0000    0    12.011    5.124762   24.321460   35.224963
  23 H     1.0000    0     1.008    3.781694   25.607837   36.077223
  24 C     6.0000    0    12.011    5.176960   24.033624   32.619583
  25 H     1.0000    0     1.008    3.883518   25.089925   31.439005
  26 C     6.0000    0    12.011    6.881151   22.380287   31.518677
  27 C     6.0000    0    12.011   18.382220   26.099375   30.972912
  28 C     6.0000    0    12.011   17.707888   27.215310   33.270695
  29 C     6.0000    0    12.011   18.584084   29.602511   33.874887
  30 H     1.0000    0     1.008   18.064090   30.452938   35.661762
  31 C     6.0000    0    12.011   20.139493   30.892026   32.203384
  32 H     1.0000    0     1.008   20.823503   32.760666   32.683010
  33 C     6.0000    0    12.011   20.837966   29.787255   29.929989
  34 H     1.0000    0     1.008   22.058825   30.790931   28.631166
  35 C     6.0000    0    12.011   19.978635   27.395243   29.316422
  36 C     6.0000    0    12.011   22.578638   21.210299   29.210674
  37 C     6.0000    0    12.011   20.434112   21.932293   25.004792
  38 H     1.0000    0     1.008   22.200423   15.265651   25.625803
  39 H     1.0000    0     1.008   21.813573   14.933484   30.371999
  40 H     1.0000    0     1.008   17.849531   16.126665   32.481456
  41 H     1.0000    0     1.008   18.356122   16.342351   23.052760
  42 H     1.0000    0     1.008   14.402943   17.593748   25.140910
  43 H     1.0000    0     1.008   20.531733   26.550692   27.535825
  44 H     1.0000    0     1.008   16.527005   26.205282   34.603667
  45 H     1.0000    0     1.008    9.786454   20.226758   36.825586
  46 H     1.0000    0     1.008    6.944023   22.119631   29.489288
* core charge reduced due to ECP

--------------------------------
INTERNAL COORDINATES (ANGSTROEM)
--------------------------------
 Mo     0   0   0     0.000000000000     0.00000000     0.00000000
 Cl     1   0   0     5.367474740828     0.00000000     0.00000000
 Cl     2   1   0     3.495751349956   110.65706811     0.00000000
 P      1   2   3     3.966679034448    72.04240644     3.21297096
 P      4   1   2     2.043562218145    27.47773551   167.13780602
 O      1   2   3     3.122291979757   137.94959796   263.55023593
 O      1   2   3     3.126314884242   143.73449260   100.55189182
 N      2   1   3     2.692618306820    34.79466283   357.51789521
 N      8   2   1     2.163184704164   103.93641603   177.88109605
 C      9   8   2     1.348979899650    36.77812274   179.10959908
 C      8   2   1     1.386067270021    31.52559195   178.30407358
 C     11   8   2     1.351043496796   107.48824609   180.71358041
 C      8   2   1     1.422276637261    90.29536361   359.45063188
 C     13   8   2     1.447333795297   119.35490086    81.15261540
 C     14  13   8     1.374248430199   119.71545585   187.43600696
 C     15  14  13     1.435420182079   120.80007976   357.54269132
 C     16  15  14     1.441328894752   118.44889149    12.10829325
 C     17  16  15     1.376175621135   120.48713452   348.77799115
 C      9   8   2     1.440772342127   162.84466304   179.28005113
 C     19   9   8     1.383438023318   118.83435625   266.38423183
 C     20  19   9     1.384751403346   118.58708614   181.62507249
 H     21  20  19     1.082257961421   119.70116925   179.88876708
 C     21  20  19     1.387651507452   120.01896777     0.15536281
 H     23  21  20     1.082544860632   119.74186576   179.72643739
 C     23  21  20     1.387370968805   120.51450991   359.96280395
 H     25  23  21     1.082232588779   120.28908603   179.82396250
 C     19   9   8     1.383165087632   118.86646783    88.31423497
 C      5   4   1     1.799237492364   101.25625994   177.97837448
 C     28   5   4     1.398053767827   121.89412562    38.69626914
 C     29  28   5     1.383117264314   120.08418655   180.11039935
 H     30  29  28     1.082751629415   119.75505765   180.34145387
 C     30  29  28     1.387622476743   120.04239788   359.84600109
 H     32  30  29     1.083163254549   119.85421871   180.04577765
 C     32  30  29     1.387686795418   120.22716370   359.51054026
 H     34  32  30     1.082527096317   120.17773798   180.29747259
 C     34  32  30     1.383637625001   120.08654100     0.20208994
 C      7   1   2     1.143205899106     1.75779092   335.62484145
 C      6   1   2     1.143237482180     1.91398247    42.48755678
 H     16  15  14     1.078915065002   120.25212104   180.91751924
 H     17  16  15     1.081804130419   119.86947362   173.17039744
 H     18  17  16     1.082389628540   120.52298935   183.39163255
 H     15  14  13     1.082032247877   119.43836078   183.19987474
 H     14  13   8     1.082267462987   119.66549231     9.60936309
 H     36  34  32     1.083161498704   119.52413778   179.88774595
 H     29  28   5     1.083386884197   120.33859332     1.26574223
 H     20  19   9     1.083339885490   120.24915338     1.43946610
 H     27  19   9     1.083239368387   120.25198197   358.52369792

---------------------------
INTERNAL COORDINATES (A.U.)
---------------------------
 Mo     0   0   0     0.000000000000     0.00000000     0.00000000
 Cl     1   0   0    10.143057290905     0.00000000     0.00000000
 Cl     2   1   0     6.606012683702   110.65706811     0.00000000
 P      1   2   3     7.495937036274    72.04240644     3.21297096
 P      4   1   2     3.861772929923    27.47773551   167.13780602
 O      1   2   3     5.900276751880   137.94959796   263.55023593
 O      1   2   3     5.907878939620   143.73449260   100.55189182
 N      2   1   3     5.088311183073    34.79466283   357.51789521
 N      8   2   1     4.087826667958   103.93641603   177.88109605
 C      9   8   2     2.549202570502    36.77812274   179.10959908
 C      8   2   1     2.619287543532    31.52559195   178.30407358
 C     11   8   2     2.553102203961   107.48824609   180.71358041
 C      8   2   1     2.687713331097    90.29536361   359.45063188
 C     13   8   2     2.735064497480   119.35490086    81.15261540
 C     14  13   8     2.596953173048   119.71545585   187.43600696
 C     15  14  13     2.712551031232   120.80007976   357.54269132
 C     16  15  14     2.723716879988   118.44889149    12.10829325
 C     17  16  15     2.600595036123   120.48713452   348.77799115
 C      9   8   2     2.722665147948   162.84466304   179.28005113
 C     19   9   8     2.614318987324   118.83435625   266.38423183
 C     20  19   9     2.616800915888   118.58708614   181.62507249
 H     21  20  19     2.045171153342   119.70116925   179.88876708
 C     21  20  19     2.622281318408   120.01896777     0.15536281
 H     23  21  20     2.045713314278   119.74186576   179.72643739
 C     23  21  20     2.621751177194   120.51450991   359.96280395
 H     25  23  21     2.045123205997   120.28908603   179.82396250
 C     19   9   8     2.613803213626   118.86646783    88.31423497
 C      5   4   1     3.400066110452   101.25625994   177.97837448
 C     28   5   4     2.641938741690   121.89412562    38.69626914
 C     29  28   5     2.613712840652   120.08418655   180.11039935
 H     30  29  28     2.046104050652   119.75505765   180.34145387
 C     30  29  28     2.622226458318   120.04239788   359.84600109
 H     32  30  29     2.046881909424   119.85421871   180.04577765
 C     32  30  29     2.622348002999   120.22716370   359.51054026
 H     34  32  30     2.045679744588   120.17773798   180.29747259
 C     34  32  30     2.614696179842   120.08654100     0.20208994
 C      7   1   2     2.160346063994     1.75779092   335.62484145
 C      6   1   2     2.160405747355     1.91398247    42.48755678
 H     16  15  14     2.038853994615   120.25212104   180.91751924
 H     17  16  15     2.044313537037   119.86947362   173.17039744
 H     18  17  16     2.045419968137   120.52298935   183.39163255
 H     15  14  13     2.044744616559   119.43836078   183.19987474
 H     14  13   8     2.045189108699   119.66549231     9.60936309
 H     36  34  32     2.046878591359   119.52413778   179.88774595
 H     29  28   5     2.047304508214   120.33859332     1.26574223
 H     20  19   9     2.047215693529   120.24915338     1.43946610
 H     27  19   9     2.047025743732   120.25198197   358.52369792

 One Electron integrals                  ... done
 Pre-screening matrix                    ... done

Diagonalization of the overlap matrix:
Smallest eigenvalue                        ... 6.332e-06
Time for diagonalization                   ...    0.199 sec
Threshold for overlap eigenvalues          ... 1.000e-08
Number of eigenvalues below threshold      ... 0
Time for construction of square roots      ...    0.094 sec
Total time needed                          ...    0.297 sec

-------------------
DFT GRID GENERATION
-------------------

General Integration Accuracy     IntAcc      ...  5.340
Radial Grid Type                 RadialGrid  ... Gauss-Chebyshev
Angular Grid (max. acc.)         AngularGrid ... Lebedev-590
Angular grid pruning method      GridPruning ... 3 (G Style)
Weight generation scheme         WeightScheme... Becke
Basis function cutoff            BFCut       ...    1.0000e-11
Integration weight cutoff        WCut        ...    1.0000e-14
Grids for H and He will be reduced by one unit

# of grid points (after initial pruning)     ... 707400 (   0.6 sec)
# of grid points (after weights+screening)   ... 607949 (   6.0 sec)
nearest neighbour list constructed           ...    0.0 sec
Grid point re-assignment to atoms done       ...    0.1 sec
Grid point division into batches done        ...    5.7 sec
Reduced shell lists constructed in   16.1 sec

Total number of grid points                  ...   607949
Total number of batches                      ...     9524
Average number of points per batch           ...       63
Average number of grid points per atom       ...    12935
Average number of shells per batch           ...   136.10 (32.17%)
Average number of basis functions per batch  ...   348.58 (31.26%)
Average number of large shells per batch     ...    84.32 (61.96%)
Average number of large basis fcns per batch ...   219.58 (62.99%)
Maximum spatial batch extension              ...  21.93, 19.67, 21.73 au
Average spatial batch extension              ...   1.61,  1.62,  1.60 au

Time for grid setup =   22.750 sec

--------------------
COSX GRID GENERATION
--------------------

General Integration Accuracy     IntAcc      ...  3.670
Radial Grid Type                 RadialGrid  ... Gauss-Chebyshev
Angular Grid (max. acc.)         AngularGrid ... Lebedev-50
Angular grid pruning method      GridPruning ... 3 (G Style)
Weight generation scheme         WeightScheme... Becke
Basis function cutoff            BFCut       ...    1.0000e-11
Integration weight cutoff        WCut        ...    1.0000e-14
Grids for H and He will be reduced by one unit

# of grid points (after initial pruning)     ...  30438 (   0.0 sec)
# of grid points (after weights+screening)   ...  27320 (   0.3 sec)
nearest neighbour list constructed           ...    0.0 sec
Grid point re-assignment to atoms done       ...    0.0 sec
Grid point division into batches done        ...    0.0 sec
Reduced shell lists constructed in    0.6 sec

Total number of grid points                  ...    27320
Total number of batches                      ...      444
Average number of points per batch           ...       61
Average number of grid points per atom       ...      581
Average number of shells per batch           ...   170.70 (40.35%)
Average number of basis functions per batch  ...   444.81 (39.89%)
Average number of large shells per batch     ...   107.59 (63.03%)
Average number of large basis fcns per batch ...   284.16 (63.88%)
Maximum spatial batch extension              ...  23.15, 18.54, 26.98 au
Average spatial batch extension              ...   4.24,  4.13,  4.20 au

Overlap Fitting                  UseSFitting ... on
Constructing numerical overlap ... done (      0.5 sec)
Inverting numerical overlap    ... done (      0.0 sec)
Obtaining analytic overlap     ... done (      0.0 sec)
Final contraction and storage  ... done (      0.0 sec)


General Integration Accuracy     IntAcc      ...  4.010
Radial Grid Type                 RadialGrid  ... Gauss-Chebyshev
Angular Grid (max. acc.)         AngularGrid ... Lebedev-110
Angular grid pruning method      GridPruning ... 3 (G Style)
Weight generation scheme         WeightScheme... Becke
Basis function cutoff            BFCut       ...    1.0000e-11
Integration weight cutoff        WCut        ...    1.0000e-14
Grids for H and He will be reduced by one unit

# of grid points (after initial pruning)     ...  59112 (   0.0 sec)
# of grid points (after weights+screening)   ...  52520 (   0.5 sec)
nearest neighbour list constructed           ...    0.0 sec
Grid point re-assignment to atoms done       ...    0.0 sec
Grid point division into batches done        ...    0.0 sec
Reduced shell lists constructed in    1.1 sec

Total number of grid points                  ...    52520
Total number of batches                      ...      845
Average number of points per batch           ...       62
Average number of grid points per atom       ...     1117
Average number of shells per batch           ...   162.14 (38.33%)
Average number of basis functions per batch  ...   421.40 (37.79%)
Average number of large shells per batch     ...   102.67 (63.32%)
Average number of large basis fcns per batch ...   270.95 (64.30%)
Maximum spatial batch extension              ...  19.20, 21.85, 22.48 au
Average spatial batch extension              ...   3.50,  3.51,  3.43 au

Overlap Fitting                  UseSFitting ... on
Constructing numerical overlap ... done (      0.9 sec)
Inverting numerical overlap    ... done (      0.0 sec)
Obtaining analytic overlap     ... done (      0.0 sec)
Final contraction and storage  ... done (      0.0 sec)


General Integration Accuracy     IntAcc      ...  4.340
Radial Grid Type                 RadialGrid  ... Gauss-Chebyshev
Angular Grid (max. acc.)         AngularGrid ... Lebedev-302
Angular grid pruning method      GridPruning ... 3 (G Style)
Weight generation scheme         WeightScheme... Becke
Basis function cutoff            BFCut       ...    1.0000e-11
Integration weight cutoff        WCut        ...    1.0000e-14
Grids for H and He will be reduced by one unit

# of grid points (after initial pruning)     ... 223866 (   0.1 sec)
# of grid points (after weights+screening)   ... 194228 (   1.9 sec)
nearest neighbour list constructed           ...    0.0 sec
Grid point re-assignment to atoms done       ...    0.0 sec
Grid point division into batches done        ...    0.5 sec
Reduced shell lists constructed in    4.2 sec

Total number of grid points                  ...   194228
Total number of batches                      ...     3061
Average number of points per batch           ...       63
Average number of grid points per atom       ...     4133
Average number of shells per batch           ...   145.39 (34.37%)
Average number of basis functions per batch  ...   374.57 (33.59%)
Average number of large shells per batch     ...    90.82 (62.47%)
Average number of large basis fcns per batch ...   237.68 (63.45%)
Maximum spatial batch extension              ...  20.45, 20.38, 19.58 au
Average spatial batch extension              ...   2.32,  2.34,  2.31 au

Overlap Fitting                  UseSFitting ... on
Constructing numerical overlap ... done (      2.7 sec)
Inverting numerical overlap    ... done (      0.0 sec)
Obtaining analytic overlap     ... done (      0.0 sec)
Final contraction and storage  ... done (      0.0 sec)

Time for X-Grid setup             =   13.113 sec
--------------
SCF ITERATIONS
--------------
ITER       Energy         Delta-E        Max-DP      RMS-DP      [F,P]     Damp
               ***  Starting incremental Fock matrix formation  ***
  0  -2816.6950623404   0.000000000000 0.00971084  0.00007155  0.0341399 0.7000
  1  -2816.6956258506  -0.000563510167 0.00884880  0.00006054  0.0239806 0.7000
                               ***Turning on DIIS***
  2  -2816.6960849210  -0.000459070402 0.02043423  0.00015085  0.0168143 0.0000
  3  -2816.6973946107  -0.001309689651 0.00391821  0.00002544  0.0018918 0.0000
  4  -2816.6974955407  -0.000100929998 0.00160869  0.00001536  0.0008243 0.0000
               *** Restarting incremental Fock matrix formation ***
                                   *** Resetting DIIS ***
  5  -2816.6975426481  -0.000047107444 0.00837328  0.00002209  0.0006400 0.0000
  6  -2816.6975481978  -0.000005549724 0.00337573  0.00000870  0.0009937 0.0000
  7  -2816.6975602173  -0.000012019434 0.00136777  0.00000512  0.0002627 0.0000
  8  -2816.6975624148  -0.000002197572 0.00118438  0.00000405  0.0004784 0.0000
  9  -2816.6975642710  -0.000001856175 0.00082260  0.00000295  0.0001969 0.0000
 10  -2816.6975647442  -0.000000473156 0.00054887  0.00000206  0.0000662 0.0000
 11  -2816.6975648684  -0.000000124250 0.00031045  0.00000191  0.0000214 0.0000
 12  -2816.6975649037  -0.000000035338 0.00031461  0.00000155  0.0000154 0.0000
 13  -2816.6975649408  -0.000000037008 0.00033975  0.00000159  0.0000054 0.0000
