
                                 *****************
                                 * O   R   C   A *
                                 *****************

                                            #,                                       
                                            ###                                      
                                            ####                                     
                                            #####                                    
                                            ######                                   
                                           ########,                                 
                                     ,,################,,,,,                         
                               ,,#################################,,                 
                          ,,##########################################,,             
                       ,#########################################, ''#####,          
                    ,#############################################,,   '####,        
                  ,##################################################,,,,####,       
                ,###########''''           ''''###############################       
              ,#####''   ,,,,##########,,,,          '''####'''          '####       
            ,##' ,,,,###########################,,,                        '##       
           ' ,,###''''                  '''############,,,                           
         ,,##''                                '''############,,,,        ,,,,,,###''
      ,#''                                            '''#######################'''  
     '                                                          ''''####''''         
             ,#######,   #######,   ,#######,      ##                                
            ,#'     '#,  ##    ##  ,#'     '#,    #''#        ######   ,####,        
            ##       ##  ##   ,#'  ##            #'  '#       #        #'  '#        
            ##       ##  #######   ##           ,######,      #####,   #    #        
            '#,     ,#'  ##    ##  '#,     ,#' ,#      #,         ##   #,  ,#        
             '#######'   ##     ##  '#######'  #'      '#     #####' # '####'        



                  #######################################################
                  #                        -***-                        #
                  #          Department of theory and spectroscopy      #
                  #    Directorship and core code : Frank Neese         #
                  #        Max Planck Institute fuer Kohlenforschung    #
                  #                Kaiser Wilhelm Platz 1               #
                  #                 D-45470 Muelheim/Ruhr               #
                  #                      Germany                        #
                  #                                                     #
                  #                  All rights reserved                #
                  #                        -***-                        #
                  #######################################################


                         Program Version 5.0.4 -  RELEASE  -


 With contributions from (in alphabetic order):
   Daniel Aravena         : Magnetic Suceptibility
   Michael Atanasov       : Ab Initio Ligand Field Theory (pilot matlab implementation)
   Alexander A. Auer      : GIAO ZORA, VPT2 properties, NMR spectrum
   Ute Becker             : Parallelization
   Giovanni Bistoni       : ED, misc. LED, open-shell LED, HFLD
   Martin Brehm           : Molecular dynamics
   Dmytro Bykov           : SCF Hessian
   Vijay G. Chilkuri      : MRCI spin determinant printing, contributions to CSF-ICE
   Dipayan Datta          : RHF DLPNO-CCSD density
   Achintya Kumar Dutta   : EOM-CC, STEOM-CC
   Dmitry Ganyushin       : Spin-Orbit,Spin-Spin,Magnetic field MRCI
   Miquel Garcia          : C-PCM and meta-GGA Hessian, CC/C-PCM, Gaussian charge scheme
   Yang Guo               : DLPNO-NEVPT2, F12-NEVPT2, CIM, IAO-localization
   Andreas Hansen         : Spin unrestricted coupled pair/coupled cluster methods
   Benjamin Helmich-Paris : MC-RPA, TRAH-SCF, COSX integrals
   Lee Huntington         : MR-EOM, pCC
   Robert Izsak           : Overlap fitted RIJCOSX, COSX-SCS-MP3, EOM
   Marcus Kettner         : VPT2
   Christian Kollmar      : KDIIS, OOCD, Brueckner-CCSD(T), CCSD density, CASPT2, CASPT2-K
   Simone Kossmann        : Meta GGA functionals, TD-DFT gradient, OOMP2, MP2 Hessian
   Martin Krupicka        : Initial AUTO-CI
   Lucas Lang             : DCDCAS
   Marvin Lechner         : AUTO-CI (C++ implementation), FIC-MRCC
   Dagmar Lenk            : GEPOL surface, SMD
   Dimitrios Liakos       : Extrapolation schemes; Compound Job, initial MDCI parallelization
   Dimitrios Manganas     : Further ROCIS development; embedding schemes
   Dimitrios Pantazis     : SARC Basis sets
   Anastasios Papadopoulos: AUTO-CI, single reference methods and gradients
   Taras Petrenko         : DFT Hessian,TD-DFT gradient, ASA, ECA, R-Raman, ABS, FL, XAS/XES, NRVS
   Peter Pinski           : DLPNO-MP2, DLPNO-MP2 Gradient
   Christoph Reimann      : Effective Core Potentials
   Marius Retegan         : Local ZFS, SOC
   Christoph Riplinger    : Optimizer, TS searches, QM/MM, DLPNO-CCSD(T), (RO)-DLPNO pert. Triples
   Tobias Risthaus        : Range-separated hybrids, TD-DFT gradient, RPA, STAB
   Michael Roemelt        : Original ROCIS implementation
   Masaaki Saitow         : Open-shell DLPNO-CCSD energy and density
   Barbara Sandhoefer     : DKH picture change effects
   Avijit Sen             : IP-ROCIS
   Kantharuban Sivalingam : CASSCF convergence, NEVPT2, FIC-MRCI
   Bernardo de Souza      : ESD, SOC TD-DFT
   Georgi Stoychev        : AutoAux, RI-MP2 NMR, DLPNO-MP2 response
   Willem Van den Heuvel  : Paramagnetic NMR
   Boris Wezisla          : Elementary symmetry handling
   Frank Wennmohs         : Technical directorship


 We gratefully acknowledge several colleagues who have allowed us to
 interface, adapt or use parts of their codes:
   Stefan Grimme, W. Hujo, H. Kruse, P. Pracht,  : VdW corrections, initial TS optimization,
                  C. Bannwarth, S. Ehlert          DFT functionals, gCP, sTDA/sTD-DF
   Ed Valeev, F. Pavosevic, A. Kumar             : LibInt (2-el integral package), F12 methods
   Garnet Chan, S. Sharma, J. Yang, R. Olivares  : DMRG
   Ulf Ekstrom                                   : XCFun DFT Library
   Mihaly Kallay                                 : mrcc  (arbitrary order and MRCC methods)
   Jiri Pittner, Ondrej Demel                    : Mk-CCSD
   Frank Weinhold                                : gennbo (NPA and NBO analysis)
   Christopher J. Cramer and Donald G. Truhlar   : smd solvation model
   Lars Goerigk                                  : TD-DFT with DH, B97 family of functionals
   V. Asgeirsson, H. Jonsson                     : NEB implementation
   FAccTs GmbH                                   : IRC, NEB, NEB-TS, DLPNO-Multilevel, CI-OPT
                                                   MM, QMMM, 2- and 3-layer-ONIOM, Crystal-QMMM,
                                                   LR-CPCM, SF, NACMEs, symmetry and pop. for TD-DFT,
                                                   nearIR, NL-DFT gradient (VV10), updates on ESD,
                                                   ML-optimized integration grids
   S Lehtola, MJT Oliveira, MAL Marques          : LibXC Library
   Liviu Ungur et al                             : ANISO software


 Your calculation uses the libint2 library for the computation of 2-el integrals
 For citations please refer to: http://libint.valeyev.net

 Your ORCA version has been built with support for libXC version: 5.1.0
 For citations please refer to: https://tddft.org/programs/libxc/

 This ORCA versions uses:
   CBLAS   interface :  Fast vector & matrix operations
   LAPACKE interface :  Fast linear algebra routines
   SCALAPACK package :  Parallel linear algebra routines
   Shared memory     :  Shared parallel matrices
   BLAS/LAPACK       :  OpenBLAS 0.3.15  USE64BITINT DYNAMIC_ARCH NO_AFFINITY SkylakeX SINGLE_THREADED
        Core in use  :  SkylakeX
   Copyright (c) 2011-2014, The OpenBLAS Project


================================================================================

cite the ECPs for Ga [HayWadt], Si [HayWadt] as follows:
H  - Ne: T. H. Dunning Jr. and P. J. Hay, Methods El. Str. Th. Vol. 2, PLENUM PRESS (1977)
Na - Hg: P. J. Hay and W. R. Wadt, J. Chem. Phys. 82, 270 (1985)
P. J. Hay and W. R. Wadt, J. Chem. Phys. 82, 284 (1985)
P. J. Hay and W. R. Wadt, J. Chem. Phys. 82, 299 (1985)


ECP parameters for Ga [HayWadt], Si [HayWadt] have been obtained from:
LANL2DZ ECP  EMSL  Basis Set Exchange Library   5/31/16 12:35 AM

----- Orbital basis set information -----
Your calculation utilizes the basis: def2-SVP
   F. Weigend and R. Ahlrichs, Phys. Chem. Chem. Phys. 7, 3297 (2005).

The basis set includes element-specific modifications.

Your calculation utilizes the basis: def2-TZVP
   F. Weigend and R. Ahlrichs, Phys. Chem. Chem. Phys. 7, 3297 (2005).

The basis set includes atom-specific modifications.

----- AuxJ basis set information -----
The basis set includes element-specific modifications.

Your calculation utilizes the auxiliary basis: def2/J
   F. Weigend, Phys. Chem. Chem. Phys. 8, 1057 (2006).

The basis set includes atom-specific modifications.

----- AuxC basis set information -----
The basis set includes element-specific modifications.

Your calculation utilizes the auxiliary basis: def2-SVP/C
  H-La, Hf-Rn : A. Hellweg, C. Hattig, S. Hofener and W. Klopper, Theor. Chem. Acc. 117, 587 (2007).
        Ce-Lu : J. Chmela and M. E. Harding, Mol. Phys. (2018).

Your calculation utilizes the auxiliary basis: def2-TZVP/C
  H-La, Hf-Rn : A. Hellweg, C. Hattig, S. Hofener and W. Klopper, Theor. Chem. Acc. 117, 587 (2007).
        Ce-Lu : J. Chmela and M. E. Harding, Mol. Phys. (2018).

The basis set includes atom-specific modifications.

================================================================================
                                        WARNINGS
                       Please study these warnings very carefully!
================================================================================

INFO   : Checking CIS options ...

WARNING: CIS/ROCIS methods need fully converged wavefunctions
  ===> : Setting SCFConvForced true
         You can overwrite this default with %scf ConvForced false 


INFO   : the flag for use of the SHARK integral package has been found!

================================================================================
                                       INPUT FILE
================================================================================
NAME = TDDFT_PBE0_FORMEB.inp
|  1> ! RIJCOSX TightSCF RKS PBE0
|  2> %MaxCore 300000
|  3> %pal nprocs 16
|  4>  end
|  5> %tddft
|  6> tda true
|  7> Nroots 10
|  8> MaxDim 4
|  9> triplets true
| 10> end
| 11> %pointcharges "pointcharges_B_Orca.pc"
| 12> * xyz -44 1
| 13>           Ga    -2.243350     0.003167    -4.508523
| 14>           Ga    -2.248176    -0.014139     4.504076
| 15>           Ga     2.257582     0.003236     4.507894
| 16>           Ga    -2.258079     9.040419    -4.525994
| 17>           Ga     2.266279    -0.017772    -4.499475
| 18>           Ga     0.002749     4.511893    -2.248345
| 19>           Ga    -0.003005    -4.505342     2.257728
| 20>           Ga    -4.492167     6.765751     0.000517
| 21>           Ga    -4.495597     6.785772    -9.068743
| 22>           Ga     4.503890     2.253662     0.010043
| 23>           Ga     4.509653    -2.254660    -0.005579
| 24>           Ga    -4.510688    -2.262815     0.007728
| 25>           Ga    -4.515448     2.247284     0.008121
| 26>           Ga    -4.540093     2.246331    -9.072371
| 27>           Ga     0.000468     4.494877    -6.771371
| 28>           Ga     0.004941    -4.505799    -2.251051
| 29>           Ga    -6.759722     0.013698    -4.493923
| 30>           Ga    -6.785077     9.051712    -4.508476
| 31>           Ga    -9.053207     4.513867    -2.237721
| 32>           Ga    -9.037485     4.520630    -6.776441
| 33>           Ga     0.009503     4.506550     2.256852
| 34>           Na    -2.757395     2.781535    -6.357986 NewGTO "def2-TZVP" end NewAuxCGTO "def2-TZVP/C" end NewAuxGTO "def2/J" end
| 35>           Na    -2.824366     6.241672    -2.800010 NewGTO "def2-TZVP" end NewAuxCGTO "def2-TZVP/C" end NewAuxGTO "def2/J" end
| 36>           Na    -2.824896     2.827895     2.828308
| 37>           Na     2.834148    -2.832165     2.827367
| 38>           Na     2.834538     2.826724    -2.835654
| 39>           Na    -2.837776    -2.827763    -2.821601
| 40>           Na    -6.243617     2.813436    -2.764651 NewGTO "def2-TZVP" end NewAuxCGTO "def2-TZVP/C" end NewAuxGTO "def2/J" end
| 41>           Na    -6.290630     6.318090    -6.374481 NewGTO "def2-TZVP" end NewAuxCGTO "def2-TZVP/C" end NewAuxGTO "def2/J" end
| 42>           Na    -7.282670     7.282353    -1.720590
| 43>           Na    -7.315602     1.723823    -7.309950
| 44>           Na     1.585886     1.590377     1.584540 NewGTO "def2-TZVP" end NewAuxCGTO "def2-TZVP/C" end NewAuxGTO "def2/J" end
| 45>           Na     1.593259    -1.587949    -1.581186 NewGTO "def2-TZVP" end NewAuxCGTO "def2-TZVP/C" end NewAuxGTO "def2/J" end
| 46>           Na    -1.596683    -1.587297     1.584225 NewGTO "def2-TZVP" end NewAuxCGTO "def2-TZVP/C" end NewAuxGTO "def2/J" end
| 47>           Na    -1.630366     1.619762    -1.606711 NewGTO "def2-TZVP" end NewAuxCGTO "def2-TZVP/C" end NewAuxGTO "def2/J" end
| 48>           Na    -1.723967     7.301300    -7.332902
| 49>            O    -3.076314     5.802315    -9.662251
| 50>            O    -3.104042     5.743809    -0.611009
| 51>            O     3.113717    -5.738440    -0.622791
| 52>            O    -3.113787    -5.741632     0.627559
| 53>            O     3.126584     5.730870     0.630268
| 54>            O     3.135565     3.283172    -0.627010
| 55>            O    -3.136259    -3.291232    -0.617439
| 56>            O     3.141452    -3.287894     0.623772
| 57>            O    -3.141990     3.282230     0.621774
| 58>            O    -3.174858     3.311016    -8.496861
| 59>            O    -3.243483     0.601943    -5.917101
| 60>            O    -3.271690    -0.626175     5.889469
| 61>            O     3.274402     0.612108     5.899909
| 62>            O    -3.276616     9.642628    -5.916389
| 63>            O     3.282271    -0.627481    -5.891386
| 64>            O    -3.282344     0.616794     3.138612
| 65>            O    -3.282495     8.441170    -3.138542
| 66>            O    -3.284998    -0.619531    -3.144908
| 67>            O     3.291454    -0.631244     3.143061
| 68>            O     3.301112     0.623134    -3.138163
| 69>            O     3.861772     1.215995     1.372489
| 70>            O     3.871179    -1.221044    -1.370488
| 71>            O    -3.871393     1.169440    -1.319706
| 72>            O    -3.872142    -1.217913     1.364608
| 73>            O    -3.898046    10.300129    -1.397643
| 74>            O    -3.898065     7.784852     1.395612
| 75>            O    -3.911108     1.208874   -10.432548
| 76>            O    -3.927290    -1.222968    -7.660172
| 77>            O    -3.937013     7.779656    -7.639861
| 78>            O    -5.098887     7.825757    -1.356852
| 79>            O    -5.102079     1.266269    -7.636103
| 80>            O    -5.108232    10.276160    -7.676496
| 81>            O    -5.123160    -1.270859    -1.398946
| 82>            O    -5.126862     7.826596   -10.423977
| 83>            O     5.128194    -1.231083     1.375929
| 84>            O     5.132290     1.228653    -1.365821
| 85>            O    -5.133291     1.233103     1.398344
| 86>            O    -5.735053    -0.579512    -5.884209
| 87>            O    -5.735776    -0.633793     3.125471
| 88>            O     5.736608     0.621319     3.119710
| 89>            O    -5.742569     0.615550    -3.099589
| 90>            O     5.753474    -0.617876    -3.108872
| 91>            O    -5.755928     9.647754    -3.124007
| 92>            O    -5.776099     8.474596    -5.916751
| 93>            O    -5.858125     5.718035    -8.490545
| 94>            O     5.880990     3.283535     0.627579
| 95>            O    -5.881445     5.745909     0.598185
| 96>            O     0.589163     5.884452    -5.746280
| 97>            O    -5.896277    -3.282339     0.624958
| 98>            O     5.901137    -3.270960    -0.613520
| 99>            O    -0.590484     3.090791    -5.762049
|100>            O    -5.919563     3.257293    -0.581924
|101>            O    -5.952286     3.234662    -9.671000
|102>            O     0.605992    -5.899854    -3.270501
|103>            O    -0.611552    -5.895043     3.277345
|104>            O    -0.617936     3.138746     3.292844
|105>            O    -0.619362    -3.115723     5.740226
|106>            O     0.622050     5.902407     3.266892
|107>            O    -0.623190     5.894180    -3.270580
|108>            O    -0.628888    -3.139126    -3.283402
|109>            O     0.629512     3.105475     5.741781
|110>            O     0.630552     3.151772    -3.294270
|111>            O     0.631038    -3.127709    -5.727137
|112>            O     0.635622    -3.144555     3.294758
|113>            O   -10.454113     3.905340    -1.232897
|114>            O    -7.623569     3.921112     1.285834
|115>            O    -7.631582     3.934881    -7.786751
|116>            O   -10.419365     5.115560    -7.807962
|117>            O    -7.671634     5.121564   -10.274636
|118>            O    -7.698156     5.112015    -1.175847
|119>            O    -7.781734     1.399850    -5.101743
|120>            O   -10.289522     7.655542    -5.103130
|121>            O    -7.789192    -1.378430    -3.916204
|122>            O   -10.276008     1.378903    -3.917349
|123>            O    -7.812596     7.665786    -3.908998
|124>            O    -7.818601    10.425587    -5.122430
|125>            O    -9.639281     5.894588    -3.279108
|126>            O    -9.630038     3.134767    -5.747439
|127>            O    -8.448109     3.122539    -3.253226
|128>            O    -8.453430     5.929347    -5.771386
|129>            O    -1.198952     1.360559    -3.864635
|130>            O     1.211004     7.651094    -3.920711
|131>            O    -1.212308    -1.374984     3.859372
|132>            O    -1.217313    -1.376861    -5.128436
|133>            O     1.223930     1.365153     3.861378
|134>            O    -1.225205     1.367745     5.124139
|135>            O     1.226479    -1.377323    -3.857062
|136>            O    -1.227903    10.420680    -3.921140
|137>            O     1.231056    -1.373393     5.131593
|138>            O     1.253193     1.371860    -5.111578
|139>            O    -1.263921     7.628582    -5.123481
|140>            O    -1.336318     3.866614    -1.186164
|141>            O     1.365746     3.866153     1.212522
|142>            O    -1.368515     3.908943   -10.288189
|143>            O    -1.369124    -3.865025     1.226771
|144>            O     1.369969    -3.863066    -1.219087
|145>            O    -1.370255    -5.127970    -1.222098
|146>            O     1.375781    -5.124353     1.230992
|147>            O     1.386919     3.908690    -7.801315
|148>            O     1.388343     5.138154    -1.233254
|149>            O    -1.389553     5.119109     1.256362
|150>            O    -1.399536     5.082457    -7.788286
|151>            S    -3.843868     3.798596    -4.051751
|152>            S    -5.314832     5.167870    -4.092650
|153>           Si    -0.021445     6.763036    -4.514791
|154>           Si    -2.244980    -4.505908     0.006317
|155>           Si    -2.245686     4.500903     0.011526
|156>           Si     2.247575    -4.502132     0.000564
|157>           Si    -2.251254     4.526820    -9.065624
|158>           Si     2.251977     4.504639    -0.001750
|159>           Si     4.503099    -0.003190     2.249426
|160>           Si    -4.503863    -0.017042    -2.241891
|161>           Si    -4.504602     0.016540    -6.771966
|162>           Si    -4.505424    -0.003831     2.254231
|163>           Si    -4.510557     9.052190    -2.253981
|164>           Si     4.513498     0.000386    -2.243014
|165>           Si    -4.519868     9.044322    -6.786183
|166>           Si     0.005248     2.241543     4.503496
|167>           Si     0.005448    -2.252868    -4.497731
|168>           Si     0.006374    -2.249558     4.504444
|169>           Si    -6.774755     4.509188     0.021932
|170>           Si    -6.780978     4.500722    -9.060195
|171>           Si    -9.044850     6.782335    -4.511005
|172>           Si    -9.034547     2.259336    -4.505647
|173>           Si     0.016932     2.245228    -4.503048
|174>           Ga>     3.000000     -0.001909    -4.493503     6.768873 NewECP "HayWadt" end
|175>           Ga>     3.000000      2.245316     9.031014    -4.522813 NewECP "HayWadt" end
|176>           Ga>     3.000000      0.022541     4.494965   -11.316829 NewECP "HayWadt" end
|177>           Ga>     3.000000      0.022541     4.494965     6.760302 NewECP "HayWadt" end
|178>           Ga>     3.000000     -4.491350    -6.769895     0.006284 NewECP "HayWadt" end
|179>           Ga>     3.000000     -4.491350    11.307236     0.006284 NewECP "HayWadt" end
|180>           Ga>     3.000000      4.495057    -6.764332    -0.008432 NewECP "HayWadt" end
|181>           Ga>     3.000000      4.499517     6.768199     0.014426 NewECP "HayWadt" end
|182>           Ga>     3.000000     -4.507611    11.311796    -9.052023 NewECP "HayWadt" end
|183>           Ga>     3.000000     -4.528169    -2.256506    -9.039104 NewECP "HayWadt" end
|184>           Ga>     3.000000      6.762283     0.000373     4.498786 NewECP "HayWadt" end
|185>           Ga>     3.000000    -11.310989     9.043329    -4.505255 NewECP "HayWadt" end
|186>           Ga>     3.000000     -6.770839    -0.014043     4.497156 NewECP "HayWadt" end
|187>           Ga>     3.000000    -11.305764    -0.010992    -4.500440 NewECP "HayWadt" end
|188>           Ga>     3.000000      6.771367    -0.010992    -4.500440 NewECP "HayWadt" end
|189>           Ga>     3.000000      0.007211    -4.497442    -6.762829 NewECP "HayWadt" end
|190>           Ga>     3.000000     -9.052413     4.516514   -11.304748 NewECP "HayWadt" end
|191>           Ga>     3.000000     -9.038925     4.518649     2.267898 NewECP "HayWadt" end
|192>           Si>     4.000000      2.264410     4.513113    -9.036389 NewECP "HayWadt" end
|193>           Si>     4.000000     -4.508887     9.027888     2.256674 NewECP "HayWadt" end
|194>           Si>     4.000000      4.512876     0.004347     6.771865 NewECP "HayWadt" end
|195>           Si>     4.000000     -4.513116    -0.022516   -11.318311 NewECP "HayWadt" end
|196>           Si>     4.000000     -4.513116    -0.022516     6.758821 NewECP "HayWadt" end
|197>           Si>     4.000000     -4.513809     9.052005   -11.310502 NewECP "HayWadt" end
|198>           Si>     4.000000      4.516131    -0.015629    -6.766807 NewECP "HayWadt" end
|199>           Si>     4.000000     -0.005161    -6.766003     4.516473 NewECP "HayWadt" end
|200>           Si>     4.000000      0.006262    -6.769400    -4.514687 NewECP "HayWadt" end
|201>           Si>     4.000000      0.006262    11.307731    -4.514687 NewECP "HayWadt" end
|202>           Si>     4.000000    -11.315127     4.511806     0.012690 NewECP "HayWadt" end
|203>           Si>     4.000000      6.762005     4.511806     0.012690 NewECP "HayWadt" end
|204>           Si>     4.000000     -6.767989    -4.520355     0.016545 NewECP "HayWadt" end
|205>           Si>     4.000000      6.769043    -4.513696    -0.009527 NewECP "HayWadt" end
|206>           Si>     4.000000    -11.302540     4.508465    -9.037147 NewECP "HayWadt" end
|207>           Si>     4.000000     -9.027609    -2.256318    -4.514365 NewECP "HayWadt" end
|208>           Si>     4.000000     -9.047635    11.304408    -4.510402 NewECP "HayWadt" end
|209>           Si>     4.000000      0.017874     6.769894     4.509802 NewECP "HayWadt" end
|210> *
|211> %scf
|212> MaxIter 500
|213> end
|214> %basis
|215>  NewGTO 16 "def2-TZVP" end
|216>  NewGTO 11 "def2-SVP" end
|217>  NewAuxCGTO 11 "def2-SVP/C" end
|218>  NewAuxCGTO 16 "def2-TZVP/C" end
|219>  NewAuxGTO 11 "def2/J" end
|220>  NewAuxGTO 16 "def2/J" end
|221>  NewGTO 8 "def2-SVP" end
|222>  NewAuxCGTO 8 "def2-SVP/C" end
|223>  NewAuxGTO 8 "def2/J" end
|224>  NewAuxCGTO 13 "def2-SVP/C" end
|225>  NewAuxCGTO 14 "def2-SVP/C" end
|226>  NewAuxGTO 13 "def2/J" end
|227>  NewAuxGTO 14 "def2/J" end
|228>  NewGTO 13 "def2-SVP" end
|229>  NewGTO 14 "def2-SVP" end
|230>  NewGTO 31 "def2-SVP" end
|231>  NewAuxCGTO 31 "def2-SVP/C" end
|232>  NewAuxGTO 31 "def2/J" end
|233>  NewGTO 32 "def2-SVP" end
|234>  NewAuxCGTO 32 "def2-SVP/C" end
|235>  NewAuxGTO 32 "def2/J" end
|236> end
|237> 
|238>                          ****END OF INPUT****
================================================================================

                       ****************************
                       * Single Point Calculation *
                       ****************************

---------------------------------
CARTESIAN COORDINATES (ANGSTROEM)
---------------------------------
  Ga    -2.243350    0.003167   -4.508523
  Ga    -2.248176   -0.014139    4.504076
  Ga     2.257582    0.003236    4.507894
  Ga    -2.258079    9.040419   -4.525994
  Ga     2.266279   -0.017772   -4.499475
  Ga     0.002749    4.511893   -2.248345
  Ga    -0.003005   -4.505342    2.257728
  Ga    -4.492167    6.765751    0.000517
  Ga    -4.495597    6.785772   -9.068743
  Ga     4.503890    2.253662    0.010043
  Ga     4.509653   -2.254660   -0.005579
  Ga    -4.510688   -2.262815    0.007728
  Ga    -4.515448    2.247284    0.008121
  Ga    -4.540093    2.246331   -9.072371
  Ga     0.000468    4.494877   -6.771371
  Ga     0.004941   -4.505799   -2.251051
  Ga    -6.759722    0.013698   -4.493923
  Ga    -6.785077    9.051712   -4.508476
  Ga    -9.053207    4.513867   -2.237721
  Ga    -9.037485    4.520630   -6.776441
  Ga     0.009503    4.506550    2.256852
  Na    -2.757395    2.781535   -6.357986
  Na    -2.824366    6.241672   -2.800010
  Na    -2.824896    2.827895    2.828308
  Na     2.834148   -2.832165    2.827367
  Na     2.834538    2.826724   -2.835654
  Na    -2.837776   -2.827763   -2.821601
  Na    -6.243617    2.813436   -2.764651
  Na    -6.290630    6.318090   -6.374481
  Na    -7.282670    7.282353   -1.720590
  Na    -7.315602    1.723823   -7.309950
  Na     1.585886    1.590377    1.584540
  Na     1.593259   -1.587949   -1.581186
  Na    -1.596683   -1.587297    1.584225
  Na    -1.630366    1.619762   -1.606711
  Na    -1.723967    7.301300   -7.332902
  O     -3.076314    5.802315   -9.662251
  O     -3.104042    5.743809   -0.611009
  O      3.113717   -5.738440   -0.622791
  O     -3.113787   -5.741632    0.627559
  O      3.126584    5.730870    0.630268
  O      3.135565    3.283172   -0.627010
  O     -3.136259   -3.291232   -0.617439
  O      3.141452   -3.287894    0.623772
  O     -3.141990    3.282230    0.621774
  O     -3.174858    3.311016   -8.496861
  O     -3.243483    0.601943   -5.917101
  O     -3.271690   -0.626175    5.889469
  O      3.274402    0.612108    5.899909
  O     -3.276616    9.642628   -5.916389
  O      3.282271   -0.627481   -5.891386
  O     -3.282344    0.616794    3.138612
  O     -3.282495    8.441170   -3.138542
  O     -3.284998   -0.619531   -3.144908
  O      3.291454   -0.631244    3.143061
  O      3.301112    0.623134   -3.138163
  O      3.861772    1.215995    1.372489
  O      3.871179   -1.221044   -1.370488
  O     -3.871393    1.169440   -1.319706
  O     -3.872142   -1.217913    1.364608
  O     -3.898046   10.300129   -1.397643
  O     -3.898065    7.784852    1.395612
  O     -3.911108    1.208874  -10.432548
  O     -3.927290   -1.222968   -7.660172
  O     -3.937013    7.779656   -7.639861
  O     -5.098887    7.825757   -1.356852
  O     -5.102079    1.266269   -7.636103
  O     -5.108232   10.276160   -7.676496
  O     -5.123160   -1.270859   -1.398946
  O     -5.126862    7.826596  -10.423977
  O      5.128194   -1.231083    1.375929
  O      5.132290    1.228653   -1.365821
  O     -5.133291    1.233103    1.398344
  O     -5.735053   -0.579512   -5.884209
  O     -5.735776   -0.633793    3.125471
  O      5.736608    0.621319    3.119710
  O     -5.742569    0.615550   -3.099589
  O      5.753474   -0.617876   -3.108872
  O     -5.755928    9.647754   -3.124007
  O     -5.776099    8.474596   -5.916751
  O     -5.858125    5.718035   -8.490545
  O      5.880990    3.283535    0.627579
  O     -5.881445    5.745909    0.598185
  O      0.589163    5.884452   -5.746280
  O     -5.896277   -3.282339    0.624958
  O      5.901137   -3.270960   -0.613520
  O     -0.590484    3.090791   -5.762049
  O     -5.919563    3.257293   -0.581924
  O     -5.952286    3.234662   -9.671000
  O      0.605992   -5.899854   -3.270501
  O     -0.611552   -5.895043    3.277345
  O     -0.617936    3.138746    3.292844
  O     -0.619362   -3.115723    5.740226
  O      0.622050    5.902407    3.266892
  O     -0.623190    5.894180   -3.270580
  O     -0.628888   -3.139126   -3.283402
  O      0.629512    3.105475    5.741781
  O      0.630552    3.151772   -3.294270
  O      0.631038   -3.127709   -5.727137
  O      0.635622   -3.144555    3.294758
  O    -10.454113    3.905340   -1.232897
  O     -7.623569    3.921112    1.285834
  O     -7.631582    3.934881   -7.786751
  O    -10.419365    5.115560   -7.807962
  O     -7.671634    5.121564  -10.274636
  O     -7.698156    5.112015   -1.175847
  O     -7.781734    1.399850   -5.101743
  O    -10.289522    7.655542   -5.103130
  O     -7.789192   -1.378430   -3.916204
  O    -10.276008    1.378903   -3.917349
  O     -7.812596    7.665786   -3.908998
  O     -7.818601   10.425587   -5.122430
  O     -9.639281    5.894588   -3.279108
  O     -9.630038    3.134767   -5.747439
  O     -8.448109    3.122539   -3.253226
  O     -8.453430    5.929347   -5.771386
  O     -1.198952    1.360559   -3.864635
  O      1.211004    7.651094   -3.920711
  O     -1.212308   -1.374984    3.859372
  O     -1.217313   -1.376861   -5.128436
  O      1.223930    1.365153    3.861378
  O     -1.225205    1.367745    5.124139
  O      1.226479   -1.377323   -3.857062
  O     -1.227903   10.420680   -3.921140
  O      1.231056   -1.373393    5.131593
  O      1.253193    1.371860   -5.111578
  O     -1.263921    7.628582   -5.123481
  O     -1.336318    3.866614   -1.186164
  O      1.365746    3.866153    1.212522
  O     -1.368515    3.908943  -10.288189
  O     -1.369124   -3.865025    1.226771
  O      1.369969   -3.863066   -1.219087
  O     -1.370255   -5.127970   -1.222098
  O      1.375781   -5.124353    1.230992
  O      1.386919    3.908690   -7.801315
  O      1.388343    5.138154   -1.233254
  O     -1.389553    5.119109    1.256362
  O     -1.399536    5.082457   -7.788286
  S     -3.843868    3.798596   -4.051751
  S     -5.314832    5.167870   -4.092650
  Si    -0.021445    6.763036   -4.514791
  Si    -2.244980   -4.505908    0.006317
  Si    -2.245686    4.500903    0.011526
  Si     2.247575   -4.502132    0.000564
  Si    -2.251254    4.526820   -9.065624
  Si     2.251977    4.504639   -0.001750
  Si     4.503099   -0.003190    2.249426
  Si    -4.503863   -0.017042   -2.241891
  Si    -4.504602    0.016540   -6.771966
  Si    -4.505424   -0.003831    2.254231
  Si    -4.510557    9.052190   -2.253981
  Si     4.513498    0.000386   -2.243014
  Si    -4.519868    9.044322   -6.786183
  Si     0.005248    2.241543    4.503496
  Si     0.005448   -2.252868   -4.497731
  Si     0.006374   -2.249558    4.504444
  Si    -6.774755    4.509188    0.021932
  Si    -6.780978    4.500722   -9.060195
  Si    -9.044850    6.782335   -4.511005
  Si    -9.034547    2.259336   -4.505647
  Si     0.016932    2.245228   -4.503048
  Ga>   -0.001909   -4.493503    6.768873
  Ga>    2.245316    9.031014   -4.522813
  Ga>    0.022541    4.494965  -11.316829
  Ga>    0.022541    4.494965    6.760302
  Ga>   -4.491350   -6.769895    0.006284
  Ga>   -4.491350   11.307236    0.006284
  Ga>    4.495057   -6.764332   -0.008432
  Ga>    4.499517    6.768199    0.014426
  Ga>   -4.507611   11.311796   -9.052023
  Ga>   -4.528169   -2.256506   -9.039104
  Ga>    6.762283    0.000373    4.498786
  Ga>  -11.310989    9.043329   -4.505255
  Ga>   -6.770839   -0.014043    4.497156
  Ga>  -11.305764   -0.010992   -4.500440
  Ga>    6.771367   -0.010992   -4.500440
  Ga>    0.007211   -4.497442   -6.762829
  Ga>   -9.052413    4.516514  -11.304748
  Ga>   -9.038925    4.518649    2.267898
  Si>    2.264410    4.513113   -9.036389
  Si>   -4.508887    9.027888    2.256674
  Si>    4.512876    0.004347    6.771865
  Si>   -4.513116   -0.022516  -11.318311
  Si>   -4.513116   -0.022516    6.758821
  Si>   -4.513809    9.052005  -11.310502
  Si>    4.516131   -0.015629   -6.766807
  Si>   -0.005161   -6.766003    4.516473
  Si>    0.006262   -6.769400   -4.514687
  Si>    0.006262   11.307731   -4.514687
  Si>  -11.315127    4.511806    0.012690
  Si>    6.762005    4.511806    0.012690
  Si>   -6.767989   -4.520355    0.016545
  Si>    6.769043   -4.513696   -0.009527
  Si>  -11.302540    4.508465   -9.037147
  Si>   -9.027609   -2.256318   -4.514365
  Si>   -9.047635   11.304408   -4.510402
  Si>    0.017874    6.769894    4.509802

----------------------------
CARTESIAN COORDINATES (A.U.)
----------------------------
  NO LB      ZA    FRAG     MASS         X           Y           Z
   0 Ga   31.0000    0    69.720   -4.239317    0.005985   -8.519874
   1 Ga   31.0000    0    69.720   -4.248437   -0.026719    8.511470
   2 Ga   31.0000    0    69.720    4.266212    0.006115    8.518685
   3 Ga   31.0000    0    69.720   -4.267151   17.083916   -8.552889
   4 Ga   31.0000    0    69.720    4.282647   -0.033584   -8.502775
   5 Ga   31.0000    0    69.720    0.005195    8.526242   -4.248756
   6 Ga   31.0000    0    69.720   -0.005679   -8.513863    4.266488
   7 Ga   31.0000    0    69.720   -8.488965   12.785416    0.000977
   8 Ga   31.0000    0    69.720   -8.495447   12.823251  -17.137441
   9 Ga   31.0000    0    69.720    8.511119    4.258804    0.018979
  10 Ga   31.0000    0    69.720    8.522009   -4.260690   -0.010543
  11 Ga   31.0000    0    69.720   -8.523965   -4.276101    0.014604
  12 Ga   31.0000    0    69.720   -8.532960    4.246751    0.015346
  13 Ga   31.0000    0    69.720   -8.579532    4.244950  -17.144297
  14 Ga   31.0000    0    69.720    0.000884    8.494087  -12.796037
  15 Ga   31.0000    0    69.720    0.009337   -8.514726   -4.253870
  16 Ga   31.0000    0    69.720  -12.774023    0.025885   -8.492284
  17 Ga   31.0000    0    69.720  -12.821937   17.105257   -8.519785
  18 Ga   31.0000    0    69.720  -17.108082    8.529972   -4.228680
  19 Ga   31.0000    0    69.720  -17.078372    8.542753  -12.805618
  20 Ga   31.0000    0    69.720    0.017958    8.516145    4.264832
  21 Na   11.0000    0    22.990   -5.210721    5.256339  -12.014852
  22 Na   11.0000    0    22.990   -5.337278   11.795051   -5.291252
  23 Na   11.0000    0    22.990   -5.338280    5.343947    5.344728
  24 Na   11.0000    0    22.990    5.355764   -5.352016    5.342949
  25 Na   11.0000    0    22.990    5.356501    5.341734   -5.358609
  26 Na   11.0000    0    22.990   -5.362619   -5.343698   -5.332053
  27 Na   11.0000    0    22.990  -11.798726    5.316624   -5.224433
  28 Na   11.0000    0    22.990  -11.887568   11.939460  -12.046023
  29 Na   11.0000    0    22.990  -13.762252   13.761653   -3.251444
  30 Na   11.0000    0    22.990  -13.824484    3.257553  -13.813804
  31 Na   11.0000    0    22.990    2.996890    3.005377    2.994347
  32 Na   11.0000    0    22.990    3.010823   -3.000789   -2.988009
  33 Na   11.0000    0    22.990   -3.017294   -2.999557    2.993751
  34 Na   11.0000    0    22.990   -3.080945    3.060907   -3.036244
  35 Na   11.0000    0    22.990   -3.257825   13.797457  -13.857177
  36 O     8.0000    0    15.999   -5.813391   10.964786  -18.259008
  37 O     8.0000    0    15.999   -5.865789   10.854226   -1.154640
  38 O     8.0000    0    15.999    5.884072  -10.844080   -1.176904
  39 O     8.0000    0    15.999   -5.884205  -10.850112    1.185915
  40 O     8.0000    0    15.999    5.908387   10.829775    1.191034
  41 O     8.0000    0    15.999    5.925359    6.204296   -1.184877
  42 O     8.0000    0    15.999   -5.926671   -6.219527   -1.166791
  43 O     8.0000    0    15.999    5.936484   -6.213219    1.178758
  44 O     8.0000    0    15.999   -5.937501    6.202516    1.174983
  45 O     8.0000    0    15.999   -5.999612    6.256913  -16.056740
  46 O     8.0000    0    15.999   -6.129295    1.137507  -11.181700
  47 O     8.0000    0    15.999   -6.182598   -1.183299   11.129483
  48 O     8.0000    0    15.999    6.187723    1.156716   11.149212
  49 O     8.0000    0    15.999   -6.191907   18.221926  -11.180355
  50 O     8.0000    0    15.999    6.202593   -1.185767  -11.133106
  51 O     8.0000    0    15.999   -6.202731    1.165572    5.931117
  52 O     8.0000    0    15.999   -6.203017   15.951500   -5.930985
  53 O     8.0000    0    15.999   -6.207747   -1.170744   -5.943015
  54 O     8.0000    0    15.999    6.219947   -1.192878    5.939525
  55 O     8.0000    0    15.999    6.238198    1.177553   -5.930269
  56 O     8.0000    0    15.999    7.297691    2.297898    2.593628
  57 O     8.0000    0    15.999    7.315468   -2.307439   -2.589847
  58 O     8.0000    0    15.999   -7.315873    2.209921   -2.493883
  59 O     8.0000    0    15.999   -7.317288   -2.301522    2.578735
  60 O     8.0000    0    15.999   -7.366239   19.464423   -2.641163
  61 O     8.0000    0    15.999   -7.366275   14.711238    2.637324
  62 O     8.0000    0    15.999   -7.390923    2.284441  -19.714659
  63 O     8.0000    0    15.999   -7.421503   -2.311075  -14.475627
  64 O     8.0000    0    15.999   -7.439876   14.701419  -14.437245
  65 O     8.0000    0    15.999   -9.635500   14.788538   -2.564079
  66 O     8.0000    0    15.999   -9.641532    2.392902  -14.430143
  67 O     8.0000    0    15.999   -9.653160   19.419128  -14.506475
  68 O     8.0000    0    15.999   -9.681369   -2.401575   -2.643625
  69 O     8.0000    0    15.999   -9.688365   14.790123  -19.698462
  70 O     8.0000    0    15.999    9.690882   -2.326410    2.600129
  71 O     8.0000    0    15.999    9.698623    2.321818   -2.581028
  72 O     8.0000    0    15.999   -9.700514    2.330227    2.642487
  73 O     8.0000    0    15.999  -10.837680   -1.095119  -11.119544
  74 O     8.0000    0    15.999  -10.839046   -1.197695    5.906284
  75 O     8.0000    0    15.999   10.840618    1.174123    5.895398
  76 O     8.0000    0    15.999  -10.851883    1.163221   -5.857374
  77 O     8.0000    0    15.999   10.872490   -1.167616   -5.874917
  78 O     8.0000    0    15.999  -10.877128   18.231613   -5.903518
  79 O     8.0000    0    15.999  -10.915245   16.014666  -11.181039
  80 O     8.0000    0    15.999  -11.070252   10.805520  -16.044805
  81 O     8.0000    0    15.999   11.113460    6.204982    1.185952
  82 O     8.0000    0    15.999  -11.114320   10.858194    1.130406
  83 O     8.0000    0    15.999    1.113357   11.120003  -10.858895
  84 O     8.0000    0    15.999  -11.142349   -6.202722    1.180999
  85 O     8.0000    0    15.999   11.151533   -6.181219   -1.159385
  86 O     8.0000    0    15.999   -1.115853    5.840749  -10.888695
  87 O     8.0000    0    15.999  -11.186353    6.155392   -1.099677
  88 O     8.0000    0    15.999  -11.248190    6.112625  -18.275541
  89 O     8.0000    0    15.999    1.145159  -11.149108   -6.180351
  90 O     8.0000    0    15.999   -1.155666  -11.140017    6.193284
  91 O     8.0000    0    15.999   -1.167730    5.931370    6.222573
  92 O     8.0000    0    15.999   -1.170425   -5.887863   10.847455
  93 O     8.0000    0    15.999    1.175504   11.153933    6.173531
  94 O     8.0000    0    15.999   -1.177658   11.138386   -6.180500
  95 O     8.0000    0    15.999   -1.188426   -5.932088   -6.204731
  96 O     8.0000    0    15.999    1.189605    5.868497   10.850394
  97 O     8.0000    0    15.999    1.191571    5.955986   -6.225268
  98 O     8.0000    0    15.999    1.192489   -5.910513  -10.822720
  99 O     8.0000    0    15.999    1.201152   -5.942348    6.226190
 100 O     8.0000    0    15.999  -19.755411    7.380023   -2.329838
 101 O     8.0000    0    15.999  -14.406458    7.409828    2.429874
 102 O     8.0000    0    15.999  -14.421600    7.435847  -14.714827
 103 O     8.0000    0    15.999  -19.689746    9.667007  -14.754910
 104 O     8.0000    0    15.999  -14.497287    9.678353  -19.416248
 105 O     8.0000    0    15.999  -14.547407    9.660308   -2.222029
 106 O     8.0000    0    15.999  -14.705346    2.645333   -9.640897
 107 O     8.0000    0    15.999  -19.444379   14.466878   -9.643518
 108 O     8.0000    0    15.999  -14.719440   -2.604855   -7.400553
 109 O     8.0000    0    15.999  -19.418841    2.605749   -7.402717
 110 O     8.0000    0    15.999  -14.763667   14.486236   -7.386936
 111 O     8.0000    0    15.999  -14.775015   19.701504   -9.679990
 112 O     8.0000    0    15.999  -18.215601   11.139157   -6.196616
 113 O     8.0000    0    15.999  -18.198134    5.923851  -10.861086
 114 O     8.0000    0    15.999  -15.964612    5.900744   -6.147706
 115 O     8.0000    0    15.999  -15.974668   11.204842  -10.906339
 116 O     8.0000    0    15.999   -2.265691    2.571084   -7.303102
 117 O     8.0000    0    15.999    2.288466   14.458472   -7.409070
 118 O     8.0000    0    15.999   -2.290930   -2.598343    7.293156
 119 O     8.0000    0    15.999   -2.300388   -2.601890   -9.691340
 120 O     8.0000    0    15.999    2.312893    2.579765    7.296947
 121 O     8.0000    0    15.999   -2.315302    2.584663    9.683219
 122 O     8.0000    0    15.999    2.317709   -2.602763   -7.288791
 123 O     8.0000    0    15.999   -2.320400   19.692231   -7.409881
 124 O     8.0000    0    15.999    2.326359   -2.595337    9.697305
 125 O     8.0000    0    15.999    2.368192    2.592440   -9.659483
 126 O     8.0000    0    15.999   -2.388465   14.415931   -9.681976
 127 O     8.0000    0    15.999   -2.525275    7.306842   -2.241525
 128 O     8.0000    0    15.999    2.580886    7.305970    2.291335
 129 O     8.0000    0    15.999   -2.586119    7.386832  -19.441860
 130 O     8.0000    0    15.999   -2.587269   -7.303839    2.318261
 131 O     8.0000    0    15.999    2.588866   -7.300137   -2.303741
 132 O     8.0000    0    15.999   -2.589407   -9.690459   -2.309431
 133 O     8.0000    0    15.999    2.599849   -9.683624    2.326238
 134 O     8.0000    0    15.999    2.620897    7.386354  -14.742349
 135 O     8.0000    0    15.999    2.623588    9.709704   -2.330512
 136 O     8.0000    0    15.999   -2.625875    9.673714    2.374180
 137 O     8.0000    0    15.999   -2.644740    9.604452  -14.717728
 138 S    16.0000    0    32.060   -7.263858    7.178306   -7.656700
 139 S    16.0000    0    32.060  -10.043577    9.765859   -7.733988
 140 Si   14.0000    0    28.086   -0.040525   12.780286   -8.531719
 141 Si   14.0000    0    28.086   -4.242397   -8.514932    0.011937
 142 Si   14.0000    0    28.086   -4.243732    8.505474    0.021781
 143 Si   14.0000    0    28.086    4.247301   -8.507796    0.001066
 144 Si   14.0000    0    28.086   -4.254254    8.554450  -17.131547
 145 Si   14.0000    0    28.086    4.255620    8.512534   -0.003307
 146 Si   14.0000    0    28.086    8.509624   -0.006028    4.250799
 147 Si   14.0000    0    28.086   -8.511068   -0.032205   -4.236560
 148 Si   14.0000    0    28.086   -8.512464    0.031256  -12.797161
 149 Si   14.0000    0    28.086   -8.514017   -0.007240    4.259879
 150 Si   14.0000    0    28.086   -8.523717   17.106160   -4.259407
 151 Si   14.0000    0    28.086    8.529275    0.000729   -4.238682
 152 Si   14.0000    0    28.086   -8.541313   17.091292  -12.824027
 153 Si   14.0000    0    28.086    0.009917    4.235902    8.510374
 154 Si   14.0000    0    28.086    0.010295   -4.257304   -8.499480
 155 Si   14.0000    0    28.086    0.012045   -4.251049    8.512166
 156 Si   14.0000    0    28.086  -12.802432    8.521130    0.041445
 157 Si   14.0000    0    28.086  -12.814191    8.505132  -17.121287
 158 Si   14.0000    0    28.086  -17.092289   12.816756   -8.524564
 159 Si   14.0000    0    28.086  -17.072820    4.269526   -8.514439
 160 Si   14.0000    0    28.086    0.031997    4.242866   -8.509527
 161 Ga>   3.0000    0     0.000   -0.003607   -8.491490   12.791316
 162 Ga>   3.0000    0     0.000    4.243032   17.066143   -8.546878
 163 Ga>   3.0000    0     0.000    0.042596    8.494253  -21.385708
 164 Ga>   3.0000    0     0.000    0.042596    8.494253   12.775119
 165 Ga>   3.0000    0     0.000   -8.487421  -12.793248    0.011875
 166 Ga>   3.0000    0     0.000   -8.487421   21.367579    0.011875
 167 Ga>   3.0000    0     0.000    8.494427  -12.782735   -0.015934
 168 Ga>   3.0000    0     0.000    8.502855   12.790043    0.027261
 169 Ga>   3.0000    0     0.000   -8.518150   21.376197  -17.105844
 170 Ga>   3.0000    0     0.000   -8.556999   -4.264178  -17.081431
 171 Ga>   3.0000    0     0.000   12.778863    0.000705    8.501473
 172 Ga>   3.0000    0     0.000  -21.374672   17.089415   -8.513698
 173 Ga>   3.0000    0     0.000  -12.795031   -0.026537    8.498393
 174 Ga>   3.0000    0     0.000  -21.364798   -0.020772   -8.504599
 175 Ga>   3.0000    0     0.000   12.796029   -0.020772   -8.504599
 176 Ga>   3.0000    0     0.000    0.013627   -8.498934  -12.779895
 177 Ga>   3.0000    0     0.000  -17.106581    8.534975  -21.362878
 178 Ga>   3.0000    0     0.000  -17.081093    8.539009    4.285706
 179 Si>   4.0000    0     0.000    4.279115    8.528548  -17.076300
 180 Si>   4.0000    0     0.000   -8.520562   17.060236    4.264496
 181 Si>   4.0000    0     0.000    8.528100    0.008215   12.796970
 182 Si>   4.0000    0     0.000   -8.528553   -0.042549  -21.388508
 183 Si>   4.0000    0     0.000   -8.528553   -0.042549   12.772321
 184 Si>   4.0000    0     0.000   -8.529863   17.105810  -21.373751
 185 Si>   4.0000    0     0.000    8.534251   -0.029535  -12.787412
 186 Si>   4.0000    0     0.000   -0.009753  -12.785893    8.534897
 187 Si>   4.0000    0     0.000    0.011833  -12.792312   -8.531522
 188 Si>   4.0000    0     0.000    0.011833   21.368515   -8.531522
 189 Si>   4.0000    0     0.000  -21.382491    8.526078    0.023981
 190 Si>   4.0000    0     0.000   12.778338    8.526078    0.023981
 191 Si>   4.0000    0     0.000  -12.789646   -8.542233    0.031266
 192 Si>   4.0000    0     0.000   12.791637   -8.529649   -0.018003
 193 Si>   4.0000    0     0.000  -21.358705    8.519764  -17.077733
 194 Si>   4.0000    0     0.000  -17.059709   -4.263823   -8.530914
 195 Si>   4.0000    0     0.000  -17.097552   21.362235   -8.523425
 196 Si>   4.0000    0     0.000    0.033777   12.793246    8.522291
> coreless ECP center with (optional) point charge

--------------------------------
INTERNAL COORDINATES (ANGSTROEM)
--------------------------------
 Ga     0   0   0     0.000000000000     0.00000000     0.00000000
 Ga     1   0   0     9.012616907575     0.00000000     0.00000000
 Ga     2   1   0     4.505793118011    90.01744542     0.00000000
 Ga     1   2   3     9.037280890333    90.22073417   270.12753446
 Ga     1   2   3     4.509686688193    89.91521397     0.48684530
 Ga     1   2   3     5.521048401577    65.94659269   296.69232041
 Ga     2   1   3     5.500706913075    65.98195305   296.30544600
 Ga     6   1   2     5.508314263571    99.74737934   292.12166494
 Ga     4   1   2     5.543147875705    66.14011514   206.26881701
 Ga     3   2   1     5.508264738603   114.12239229    26.37224572
 Ga    10   3   2     4.508352749590    66.09628545   258.73335339
 Ga     2   1   3     5.512952896608    35.45291855   224.68253197
 Ga    12   2   1     4.510101528996    65.95040361   309.06418549
 Ga     9   4   1     4.539660521325   114.28882708     0.56861349
 Ga     6   1   2     4.523058582850    65.62863406   179.89922678
 Ga     7   2   1     4.508786024930   114.15307394     0.00000000
 Ga     1   2   3     4.516407876216    89.78435874   180.35498853
 Ga     4   1   2     4.527045979905    90.23587943   270.25303218
 Ga    17   1   2     5.531911237411   114.69600862    63.53139954
 Ga    19  17   1     4.538752268835    65.91614368   101.38977568
 Ga     6   1   2     4.505205230949   114.14300018     0.09380698
 Na    15   6   1     3.272955284442    82.88229817    31.61525237
 Na     8   6   1     3.301389169966    34.56105433   283.65193128
 Na    13  12   2     3.338941435993    99.98729948     4.21389437
 Na    11  10   3     3.341618181206    99.74376107     4.06692675
 Na     5   1   2     3.344005996576    99.61228452   300.17469863
 Na    12   2   1     3.335101706498   123.72073927    34.81796868
 Na    13  12   2     3.315925322387    99.85843135   185.18829035
 Na     9   4   1     3.271072858995    66.71227364    68.81347105
 Na     8   6   1     3.319035089429   122.55138928   308.60253509
 Na    20  19  17     3.327407746883    99.25778562   355.32488763
 Na    10   3   2     3.381380655627    35.68012989     3.47634450
 Na    11  10   3     3.381182476473    78.65774407    91.89453964
 Na     2   1   3     3.380059035611    30.33877152   292.15452813
 Na    13  12   2     3.365288159346    79.19800360    92.50516385
 Na     9   4   1     3.310716833703    33.80370006   291.05368963
 O      9   4   1     1.825870655606    99.88694597   301.42975350
 O      8   6   1     1.828994400119    10.11605615    47.14581118
 O     16   7   2     3.719559474005    64.13520855   138.13441177
 O      7   2   1     3.723281964099    96.25126857   295.60679383
 O     21   6   1     3.723026850832    64.14899975   137.83080312
 O     10   3   2     1.827030560920   102.09402349    21.08341617
 O     12   2   1     1.826890905287   101.53446360    71.67960173
 O     11  10   3     1.826370487157   124.30341277    38.66788772
 O     13  12   2     1.825943620457   124.47424529    39.20912059
 O     14   9   4     1.824454031909    53.76332918   318.99122210
 O      1   2   3     1.828357376978   140.42044884   210.99658688
 O      2   1   3     1.827972302290   139.36083996   210.56575953
 O      3   2   1     1.828210541762   123.92507577   156.38813136
 O      4   1   2     1.825724939873   109.40399795   216.25220960
 O      5   1   2     1.827949955733   123.76744486   156.42865842
 O      2   1   3     1.825396350936    41.54838900   148.51612652
 O      4   1   2     1.825801346631    70.80616190   323.54187574
 O      1   2   3     1.825439460331    41.58554947   149.43860807
 O      3   2   1     1.825986117328   124.34825486   334.83420850
 O      5   1   2     1.826146270174   124.50893152   334.47987139
 O     10   3   2     1.829023627985    10.51176165   252.81225300
 O     11  10   3     1.827289704019    55.70113178   128.50563244
 O     13  12   2     1.827478884499    53.82643640   127.42658425
 O     12   2   1     1.827753954481    10.87480034   302.54787994
 O     53   4   1     2.620183376308   113.81938194   166.85924076
 O      8   6   1     1.826968552994   105.94057467   154.30143477
 O     14   9   4     1.822641113440   124.49898897   231.18702479
 O     47   1   2     2.614610617704   115.34610031   234.39441184
 O      9   4   1     1.827983933309     9.90492043   155.56444679
 O      8   6   1     1.825971653832   101.84013616   270.00929331
 O     14   9   4     1.827352061280   122.59446353    47.03061451
 O     50   4   1     2.618044426271   169.14679167    62.55356081
 O     12   2   1     1.826973015399   122.96216131   312.31109407
 O      9   4   1     1.821666625362   121.14262189   181.23326035
 O     11  10   3     1.827256741039    55.78120134   309.25206578
 O     10   3   2     1.827164950566   121.73139010   260.64556652
 O     13  12   2     1.828390839820    56.34011497   309.26706889
 O     17   1   2     1.826127001459    55.64421689   203.18316497
 O     73  13  12     2.613667255825   167.56524327    15.48437543
 O     71  11  10     2.615785339236   168.36223516    17.16286906
 O     17   1   2     1.827838438941    56.41039315    23.49013436
 O     72  10   3     2.614147222001   168.54056435    15.70355477
 O     18   4   1     1.825148799941    55.93622524   113.21103820
 O     18   4   1     1.826016965300    56.19806548   292.14043901
 O      9   4   1     1.825063773997   106.24129774    57.53621861
 O     10   3   2     1.827127121310   105.16878461   137.47712910
 O      8   6   1     1.824110222676   121.76947583    30.57110924
 O     15   6   1     1.824360721439    55.60363313   176.48656957
 O     12   2   1     1.827637528723   105.26174000   188.36780392
 O     11  10   3     1.827207068653   123.94015262   219.97388214
 O     15   6   1     1.827405992489    56.68323492   356.27502689
 O     13  12   2     1.827514764737   123.60405425   220.45184961
 O     14   9   4     1.824676386226    57.73926112   138.86494411
 O     16   7   2     1.828641558678   123.92767774   183.25871410
 O      7   2   1     1.827899654603   104.89598539   221.20943391
 O     21   6   1     1.826977532758   124.57081636     1.71774493
 O     48   2   1     3.640737087038    77.87608853   100.79872698
 O     21   6   1     1.828609141741   123.50090209   182.80966205
 O      6   1   2     1.829612357117   104.42277341   221.58435646
 O     16   7   2     1.826275684931   124.37370565     1.57963363
 O     92  21   6     2.748549781633   111.00404906   153.55913582
 O      6   1   2     1.827026230538    45.37132489   116.00055844
 O     96  16   7     2.749433509578   110.27295004   153.68257524
 O      7   2   1     1.826202870822    45.76842988   115.55374873
 O     19  17   1     1.828254359093   105.72816427   221.59727898
 O     88  13  12     2.613964816014   114.23676664    92.07549305
 O     20  19  17     1.827673776282   123.70849308   319.63069282
 O     20  19  17     1.824162715533   124.28670037   140.09483123
 O     81   9   4     2.612962541485   115.80978089   159.73029154
 O     19  17   1     1.822503946328   101.32471750   337.47705031
 O     17   1   2     1.826299824138   124.07637059   113.93843643
 O    104  20  19     3.712746141766    77.56466481    41.30869843
 O     17   1   2     1.825263841817   124.28098836   292.49663801
 O    107  17   1     2.761273385799   110.91514399   204.39289158
 O     18   4   1     1.826461071395   124.19041153    23.10245108
 O     18   4   1     1.825553036293   124.52132412   204.14664814
 O     19  17   1     1.826023027534   121.03604496    97.78605848
 O     20  19  17     1.824987788612    55.52179493    49.95707590
 O     19  17   1     1.825701946708    10.19436049   118.28746633
 O     20  19  17     1.826400663091    56.76790901   229.52688799
 O      1   2   3     1.829719098827    69.50200983   307.78020367
 O     84  15   6     2.615418199678   169.55039616   345.84407003
 O      2   1   3     1.827721224658    69.41420366   307.02294129
 O      1   2   3     1.827982859253   109.75350641    53.62304121
 O      3   2   1     1.827905169928    55.74294708    64.59044986
 O      2   1   3     1.827717478241   109.72482863    53.28212610
 O      5   1   2     1.828184187704    55.62576751    64.60517814
 O      4   1   2     1.825440051169   138.98714141    59.55667329
 O      3   2   1     1.826982067487    55.63369088   245.42412734
 O      5   1   2     1.825401441171    55.99993097   246.11627855
 O      4   1   2     1.827190345504    39.38189669   121.21095987
 O      6   1   2     1.826941130713    69.59740783   327.84019209
 O     21   6   1     1.827601855317    55.25731609    91.13975394
 O     46  14   9     2.613282941926   115.75540334   268.27711410
 O      7   2   1     1.827336673550    68.84795613   326.61732430
 O     16   7   2     1.827937867480    55.71778211    91.34057115
 O     16   7   2     1.826747127510    55.62812315   272.14619347
 O      7   2   1     1.827132251812   144.49840251    64.26397935
 O     15   6   1     1.823909596857   124.43784891   266.26206579
 O      6   1   2     1.828245965738   144.62295409    65.19109895
 O     21   6   1     1.825805701524    56.66608749   272.80556892
 O     15   6   1     1.827396392040   123.75588863    86.39547110
 S     22  15   6     2.744732506580   104.22264728    32.52817093
 S    139  22  15     2.010054502886   121.66845841    98.95853020
 Si   118  84  15     1.631106555491    36.71333928   313.63821834
 Si    43  12   2     1.630609575696   134.39952387    57.86504660
 Si    45  13  12     1.631234919577   135.31830772   126.40201214
 Si   134   7   2     1.631299118636   134.25930577   328.19063066
 Si    46  14   9     1.629329636814   138.54896415   305.27887468
 Si    42  10   3     1.632072134874   133.91619021    58.00854105
 Si    55   3   2     1.631293641919   134.12495895   126.30991576
 Si    59  13  12     1.630393514293   134.70616393    57.03753629
 Si    74  17   1     1.630153410313   136.00216368   307.58231496
 Si    73  13  12     1.629958664143   133.63240633    51.28652767
 Si    66   8   6     1.629450991908   136.57224583   302.39420315
 Si    56   5   1     1.630639940852   134.14800856   126.50728784
 Si    68  50   4     1.629801918243    36.60957240   314.25259672
 Si    92  21   6     1.630647045246   134.56194250   126.08043286
 Si   120   1   2     1.631049209618   134.03701715   336.88043990
 Si   100   7   2     1.631046564053   134.03749018    34.70327084
 Si   106  19  17     1.628110663183   136.78709854   304.41068854
 Si   105  81   9     1.628981228186    36.72611605   137.97955877
 Si   113  19  17     1.630648082322   136.50996590   311.45772821
 Si   115  19 106     1.630210817132   135.36704410   188.97800608
 Si    98   6   1     1.630796057642   135.14263890    34.74081403
 Ga>   93  48   2     1.826921067320   137.63197193   168.29844173
 Ga>  118  84 141     1.826610888544   114.50907026   224.71256434
 Ga>  130  46  14     1.826624983192   170.33644830   177.85638913
 Ga>   97  92  21     1.826603756260   109.68192384    72.80079222
 Ga>   40   7   2     1.827836765623   164.85929499   224.43332273
 Ga>   61  53   4     1.826823792048   167.96896515   183.65558859
 Ga>   39  16   7     1.827017124207   164.83889025   111.48450453
 Ga>   41  21   6     1.827637230332   164.32492612   110.03724487
 Ga>   68  50 153     1.823557522500   114.46395453   224.07484096
 Ga>   64  47   1     1.825023241142   170.09340732   184.37051264
 Ga>   76  71 147     1.827411763757   113.14147994   133.84303560
 Ga>  108 104  20     1.823952330814   137.70990743   190.38626356
 Ga>   75  73 150     1.826736219517   112.61124105   134.65933773
 Ga>  110 107  17     1.825431632475   112.23052204   289.66413513
 Ga>   78  72 152     1.827806293766   113.91855679   133.35546762
 Ga>   99  96  16     1.827015745986   110.13706470    74.09322267
 Ga>  105  81   9     1.825860586651   170.30467309   173.20406040
 Ga>  102  88  13     1.823384976685   166.92456125   189.01896834
 Si>  135  15   6     1.631173014578   135.84037277   232.49656814
 Si>   62   8   6     1.630849404704   134.95432521   159.90173885
 Si>   49   3   2     1.632022839219   134.81700752   128.26080201
 Si>   63  14   9     1.631965396794   135.01020392   232.09077025
 Si>   48   2   1     1.631353916739   134.91605323   270.39586090
 Si>   70   9   4     1.631988901223   134.66571046    51.92207406
 Si>   51   5   1     1.631911546851   134.72121365   127.81470128
 Si>   91   7   2     1.631477724906   134.89344101   261.94077095
 Si>   90  16   7     1.632110633999   135.26449788   128.71168290
 Si>  124   4   1     1.631661964083   135.83976801    90.22543398
 Si>  101  19  17     1.631144718264   134.46040738   159.35378996
 Si>   82  10   3     1.631847285130   134.73397897   198.23324830
 Si>   85  12   2     1.631787916909   134.61208796   199.36266865
 Si>   86  11  10     1.631704977801   134.87146410   128.63656502
 Si>  104  20  19     1.630784530180   135.64868998   232.89009792
 Si>  109  17   1     1.631612879440   136.25520823   232.26519438
 Si>  112  18   4     1.630162321973   134.93350598   232.32787596
 Si>   94  21   6     1.631682445283   134.63155546   128.91646933

---------------------------
INTERNAL COORDINATES (A.U.)
---------------------------
 Ga     0   0   0     0.000000000000     0.00000000     0.00000000
 Ga     1   0   0    17.031377705266     0.00000000     0.00000000
 Ga     2   1   0     8.514715009147    90.01744542     0.00000000
 Ga     1   2   3    17.077985878050    90.22073417   270.12753446
 Ga     1   2   3     8.522072790475    89.91521397     0.48684530
 Ga     1   2   3    10.433269451105    65.94659269   296.69232041
 Ga     2   1   3    10.394829608680    65.98195305   296.30544600
 Ga     6   1   2    10.409205417722    99.74737934   292.12166494
 Ga     4   1   2    10.475031404910    66.14011514   206.26881701
 Ga     3   2   1    10.409111829096   114.12239229    26.37224572
 Ga    10   3   2     8.519552011836    66.09628545   258.73335339
 Ga     2   1   3    10.417971163798    35.45291855   224.68253197
 Ga    12   2   1     8.522856725982    65.95040361   309.06418549
 Ga     9   4   1     8.578715126279   114.28882708     0.56861349
 Ga     6   1   2     8.547342009268    65.62863406   179.89922678
 Ga     7   2   1     8.520370783570   114.15307394     0.00000000
 Ga     1   2   3     8.534773995133    89.78435874   180.35498853
 Ga     4   1   2     8.554877097690    90.23587943   270.25303218
 Ga    17   1   2    10.453797235868   114.69600862    63.53139954
 Ga    19  17   1     8.576998777811    65.91614368   101.38977568
 Ga     6   1   2     8.513604063604   114.14300018     0.09380698
 Na    15   6   1     6.184989136166    82.88229817    31.61525237
 Na     8   6   1     6.238721392730    34.56105433   283.65193128
 Na    13  12   2     6.309684891229    99.98729948     4.21389437
 Na    11  10   3     6.314743206611    99.74376107     4.06692675
 Na     5   1   2     6.319255523720    99.61228452   300.17469863
 Na    12   2   1     6.302428854056   123.72073927    34.81796868
 Na    13  12   2     6.266190739846    99.85843135   185.18829035
 Na     9   4   1     6.181431867604    66.71227364    68.81347105
 Na     8   6   1     6.272067347896   122.55138928   308.60253509
 Na    20  19  17     6.287889377497    99.25778562   355.32488763
 Na    10   3   2     6.389883393675    35.68012989     3.47634450
 Na    11  10   3     6.389508889347    78.65774407    91.89453964
 Na     2   1   3     6.387385893790    30.33877152   292.15452813
 Na    13  12   2     6.359472982891    79.19800360    92.50516385
 Na     9   4   1     6.256348122662    33.80370006   291.05368963
 O      9   4   1     3.450395495058    99.88694597   301.42975350
 O      8   6   1     3.456298516700    10.11605615    47.14581118
 O     16   7   2     7.028948744701    64.13520855   138.13441177
 O      7   2   1     7.035983231516    96.25126857   295.60679383
 O     21   6   1     7.035501137308    64.14899975   137.83080312
 O     10   3   2     3.452587398442   102.09402349    21.08341617
 O     12   2   1     3.452323487543   101.53446360    71.67960173
 O     11  10   3     3.451340039803   124.30341277    38.66788772
 O     13  12   2     3.450533378645   124.47424529    39.20912059
 O     14   9   4     3.447718464237    53.76332918   318.99122210
 O      1   2   3     3.455094717423   140.42044884   210.99658688
 O      2   1   3     3.454367031722   139.36083996   210.56575953
 O      3   2   1     3.454817239078   123.92507577   156.38813136
 O      4   1   2     3.450120132230   109.40399795   216.25220960
 O      5   1   2     3.454324802850   123.76744486   156.42865842
 O      2   1   3     3.449499189127    41.54838900   148.51612652
 O      4   1   2     3.450264520078    70.80616190   323.54187574
 O      1   2   3     3.449580654078    41.58554947   149.43860807
 O      3   2   1     3.450613686091   124.34825486   334.83420850
 O      5   1   2     3.450916331110   124.50893152   334.47987139
 O     10   3   2     3.456353749364    10.51176165   252.81225300
 O     11  10   3     3.453077107929    55.70113178   128.50563244
 O     13  12   2     3.453434607227    53.82643640   127.42658425
 O     12   2   1     3.453954414160    10.87480034   302.54787994
 O     53   4   1     4.951429001876   113.81938194   166.85924076
 O      8   6   1     3.452470220446   105.94057467   154.30143477
 O     14   9   4     3.444292544828   124.49898897   231.18702479
 O     47   1   2     4.940898014303   115.34610031   234.39441184
 O      9   4   1     3.454389011162     9.90492043   155.56444679
 O      8   6   1     3.450586354045   101.84013616   270.00929331
 O     14   9   4     3.453194946076   122.59446353    47.03061451
 O     50   4   1     4.947386972091   169.14679167    62.55356081
 O     12   2   1     3.452478653168   122.96216131   312.31109407
 O      9   4   1     3.442451029238   121.14262189   181.23326035
 O     11  10   3     3.453014816926    55.78120134   309.25206578
 O     10   3   2     3.452841358070   121.73139010   260.64556652
 O     13  12   2     3.455157953031    56.34011497   309.26706889
 O     17   1   2     3.450879918516    55.64421689   203.18316497
 O     73  13  12     4.939115318706   167.56524327    15.48437543
 O     71  11  10     4.943117916282   168.36223516    17.16286906
 O     17   1   2     3.454114066652    56.41039315    23.49013436
 O     72  10   3     4.940022323334   168.54056435    15.70355477
 O     18   4   1     3.449031385543    55.93622524   113.21103820
 O     18   4   1     3.450671980312    56.19806548   292.14043901
 O      9   4   1     3.448870709796   106.24129774    57.53621861
 O     10   3   2     3.452769871135   105.16878461   137.47712910
 O      8   6   1     3.447068758944   121.76947583    30.57110924
 O     15   6   1     3.447542133004    55.60363313   176.48656957
 O     12   2   1     3.453734401363   105.26174000   188.36780392
 O     11  10   3     3.452920949720   123.94015262   219.97388214
 O     15   6   1     3.453296861290    56.68323492   356.27502689
 O     13  12   2     3.453502411050   123.60405425   220.45184961
 O     14   9   4     3.448138653000    57.73926112   138.86494411
 O     16   7   2     3.455631743009   123.92767774   183.25871410
 O      7   2   1     3.454229747490   104.89598539   221.20943391
 O     21   6   1     3.452487189739   124.57081636     1.71774493
 O     48   2   1     6.879996020113    77.87608853   100.79872698
 O     21   6   1     3.455570483875   123.50090209   182.80966205
 O      6   1   2     3.457466286189   104.42277341   221.58435646
 O     16   7   2     3.451160889559   124.37370565     1.57963363
 O     92  21   6     5.194006352735   111.00404906   153.55913582
 O      6   1   2     3.452579215208    45.37132489   116.00055844
 O     96  16   7     5.195676356528   110.27295004   153.68257524
 O      7   2   1     3.451023290834    45.76842988   115.55374873
 O     19  17   1     3.454900041833   105.72816427   221.59727898
 O     88  13  12     4.939677625973   114.23676664    92.07549305
 O     20  19  17     3.453802899323   123.70849308   319.63069282
 O     20  19  17     3.447167956068   124.28670037   140.09483123
 O     81   9   4     4.937783601601   115.80978089   159.73029154
 O     19  17   1     3.444033336551   101.32471750   337.47705031
 O     17   1   2     3.451206506050   124.07637059   113.93843643
 O    104  20  19     7.016073412710    77.56466481    41.30869843
 O     17   1   2     3.449248783183   124.28098836   292.49663801
 O    107  17   1     5.218050480045   110.91514399   204.39289158
 O     18   4   1     3.451511219205   124.19041153    23.10245108
 O     18   4   1     3.449795281541   124.52132412   204.14664814
 O     19  17   1     3.450683436274   121.03604496    97.78605848
 O     20  19  17     3.448727118227    55.52179493    49.95707590
 O     19  17   1     3.450076681445    10.19436049   118.28746633
 O     20  19  17     3.451397064054    56.76790901   229.52688799
 O      1   2   3     3.457667998788    69.50200983   307.78020367
 O     84  15   6     4.942424123064   169.55039616   345.84407003
 O      2   1   3     3.453892563759    69.41420366   307.02294129
 O      1   2   3     3.454386981490   109.75350641    53.62304121
 O      3   2   1     3.454240169942    55.74294708    64.59044986
 O      2   1   3     3.453885484056   109.72482863    53.28212610
 O      5   1   2     3.454767437125    55.62576751    64.60517814
 O      4   1   2     3.449581770601   138.98714141    59.55667329
 O      3   2   1     3.452495759135    55.63369088   245.42412734
 O      5   1   2     3.449508808278    55.99993097   246.11627855
 O      4   1   2     3.452889347547    39.38189669   121.21095987
 O      6   1   2     3.452418399844    69.59740783   327.84019209
 O     21   6   1     3.453666988395    55.25731609    91.13975394
 O     46  14   9     4.938389070688   115.75540334   268.27711410
 O      7   2   1     3.453165867479    68.84795613   326.61732430
 O     16   7   2     3.454301959362    55.71778211    91.34057115
 O     16   7   2     3.452051786921    55.62812315   272.14619347
 O      7   2   1     3.452779566380   144.49840251    64.26397935
 O     15   6   1     3.446689631090   124.43784891   266.26206579
 O      6   1   2     3.454884180692   144.62295409    65.19109895
 O     21   6   1     3.450272749632    56.66608749   272.80556892
 O     15   6   1     3.453278719071   123.75588863    86.39547110
 S     22  15   6     5.186792748307   104.22264728    32.52817093
 S    139  22  15     3.798452524710   121.66845841    98.95853020
 Si   118  84  15     3.082344685121    36.71333928   313.63821834
 Si    43  12   2     3.081405529416   134.39952387    57.86504660
 Si    45  13  12     3.082587258091   135.31830772   126.40201214
 Si   134   7   2     3.082708576728   134.25930577   328.19063066
 Si    46  14   9     3.078986795460   138.54896415   305.27887468
 Si    42  10   3     3.084169365717   133.91619021    58.00854105
 Si    55   3   2     3.082698227234   134.12495895   126.30991576
 Si    59  13  12     3.080997232535   134.70616393    57.03753629
 Si    74  17   1     3.080543501769   136.00216368   307.58231496
 Si    73  13  12     3.080175484842   133.63240633    51.28652767
 Si    66   8   6     3.079216123352   136.57224583   302.39420315
 Si    56   5   1     3.081462911243   134.14800856   126.50728784
 Si    68  50   4     3.079879278019    36.60957240   314.25259672
 Si    92  21   6     3.081476336603   134.56194250   126.08043286
 Si   120   1   2     3.082236317126   134.03701715   336.88043990
 Si   100   7   2     3.082231317733   134.03749018    34.70327084
 Si   106  19  17     3.076683269133   136.78709854   304.41068854
 Si   105  81   9     3.078328398569    36.72611605   137.97955877
 Si   113  19  17     3.081478296392   136.50996590   311.45772821
 Si   115  19 106     3.080651984935   135.36704410   188.97800608
 Si    98   6   1     3.081757929221   135.14263890    34.74081403
 Ga>   93  48   2     3.452380485526   137.63197193   168.29844173
 Ga>  118  84 141     3.451794332587   114.50907026   224.71256434
 Ga>  130  46  14     3.451820967611   170.33644830   177.85638913
 Ga>   97  92  21     3.451780854523   109.68192384    72.80079222
 Ga>   40   7   2     3.454110904540   164.85929499   224.43332273
 Ga>   61  53   4     3.452196661903   167.96896515   183.65558859
 Ga>   39  16   7     3.452562006735   164.83889025   111.48450453
 Ga>   41  21   6     3.453733837485   164.32492612   110.03724487
 Ga>   68  50 153     3.446024306977   114.46395453   224.07484096
 Ga>   64  47   1     3.448794113800   170.09340732   184.37051264
 Ga>   76  71 147     3.453307767406   113.14147994   133.84303560
 Ga>  108 104  20     3.446770386566   137.70990743   190.38626356
 Ga>   75  73 150     3.452031173801   112.61124105   134.65933773
 Ga>  110 107  17     3.449565861575   112.23052204   289.66413513
 Ga>   78  72 152     3.454053321075   113.91855679   133.35546762
 Ga>   99  96  16     3.452559402276   110.13706470    74.09322267
 Ga>  105  81   9     3.450376467491   170.30467309   173.20406040
 Ga>  102  88  13     3.445698242641   166.92456125   189.01896834
 Si>  135  15   6     3.082470274594   135.84037277   232.49656814
 Si>   62   8   6     3.081858740559   134.95432521   159.90173885
 Si>   49   3   2     3.084076210429   134.81700752   128.26080201
 Si>   63  14   9     3.083967659977   135.01020392   232.09077025
 Si>   48   2   1     3.082812130137   134.91605323   270.39586090
 Si>   70   9   4     3.084012076910   134.66571046    51.92207406
 Si>   51   5   1     3.083865898332   134.72121365   127.81470128
 Si>   91   7   2     3.083046093666   134.89344101   261.94077095
 Si>   90  16   7     3.084242118518   135.26449788   128.71168290
 Si>  124   4   1     3.083394255253   135.83976801    90.22543398
 Si>  101  19  17     3.082416802311   134.46040738   159.35378996
 Si>   82  10   3     3.083744461279   134.73397897   198.23324830
 Si>   85  12   2     3.083632271599   134.61208796   199.36266865
 Si>   86  11  10     3.083475539400   134.87146410   128.63656502
 Si>  104  20  19     3.081736145476   135.64868998   232.89009792
 Si>  109  17   1     3.083301498720   136.25520823   232.26519438
 Si>  112  18   4     3.080560342366   134.93350598   232.32787596
 Si>   94  21   6     3.083432959112   134.63155546   128.91646933

---------------------
BASIS SET INFORMATION
---------------------
There are 7 groups of distinct atoms

 Group   1 Type Ga  : 14s10p6d contracted to 5s4p3d pattern {63311/5311/411}
 Group   2 Type Na  : 14s8p3d contracted to 5s4p3d pattern {73211/5111/111}
 Group   3 Type Na  : 10s6p1d contracted to 4s2p1d pattern {5311/51/1}
 Group   4 Type O   : 7s4p1d contracted to 3s2p1d pattern {511/31/1}
 Group   5 Type S   : 14s9p3d1f contracted to 5s5p2d1f pattern {73211/51111/21/1}
 Group   6 Type Si  : 10s7p1d contracted to 4s3p1d pattern {5311/511/1}
 Group   7 Type Q,> :  contracted to  pattern {}

Atom   0Ga   basis set group =>   1
Atom   1Ga   basis set group =>   1
Atom   2Ga   basis set group =>   1
Atom   3Ga   basis set group =>   1
Atom   4Ga   basis set group =>   1
Atom   5Ga   basis set group =>   1
Atom   6Ga   basis set group =>   1
Atom   7Ga   basis set group =>   1
Atom   8Ga   basis set group =>   1
Atom   9Ga   basis set group =>   1
Atom  10Ga   basis set group =>   1
Atom  11Ga   basis set group =>   1
Atom  12Ga   basis set group =>   1
Atom  13Ga   basis set group =>   1
Atom  14Ga   basis set group =>   1
Atom  15Ga   basis set group =>   1
Atom  16Ga   basis set group =>   1
Atom  17Ga   basis set group =>   1
Atom  18Ga   basis set group =>   1
Atom  19Ga   basis set group =>   1
Atom  20Ga   basis set group =>   1
Atom  21Na   basis set group =>   2
Atom  22Na   basis set group =>   2
Atom  23Na   basis set group =>   3
Atom  24Na   basis set group =>   3
Atom  25Na   basis set group =>   3
Atom  26Na   basis set group =>   3
Atom  27Na   basis set group =>   2
Atom  28Na   basis set group =>   2
Atom  29Na   basis set group =>   3
Atom  30Na   basis set group =>   3
Atom  31Na   basis set group =>   2
Atom  32Na   basis set group =>   2
Atom  33Na   basis set group =>   2
Atom  34Na   basis set group =>   2
Atom  35Na   basis set group =>   3
Atom  36O    basis set group =>   4
Atom  37O    basis set group =>   4
Atom  38O    basis set group =>   4
Atom  39O    basis set group =>   4
Atom  40O    basis set group =>   4
Atom  41O    basis set group =>   4
Atom  42O    basis set group =>   4
Atom  43O    basis set group =>   4
Atom  44O    basis set group =>   4
Atom  45O    basis set group =>   4
Atom  46O    basis set group =>   4
Atom  47O    basis set group =>   4
Atom  48O    basis set group =>   4
Atom  49O    basis set group =>   4
Atom  50O    basis set group =>   4
Atom  51O    basis set group =>   4
Atom  52O    basis set group =>   4
Atom  53O    basis set group =>   4
Atom  54O    basis set group =>   4
Atom  55O    basis set group =>   4
Atom  56O    basis set group =>   4
Atom  57O    basis set group =>   4
Atom  58O    basis set group =>   4
Atom  59O    basis set group =>   4
Atom  60O    basis set group =>   4
Atom  61O    basis set group =>   4
Atom  62O    basis set group =>   4
Atom  63O    basis set group =>   4
Atom  64O    basis set group =>   4
Atom  65O    basis set group =>   4
Atom  66O    basis set group =>   4
Atom  67O    basis set group =>   4
Atom  68O    basis set group =>   4
Atom  69O    basis set group =>   4
Atom  70O    basis set group =>   4
Atom  71O    basis set group =>   4
Atom  72O    basis set group =>   4
Atom  73O    basis set group =>   4
Atom  74O    basis set group =>   4
Atom  75O    basis set group =>   4
Atom  76O    basis set group =>   4
Atom  77O    basis set group =>   4
Atom  78O    basis set group =>   4
Atom  79O    basis set group =>   4
Atom  80O    basis set group =>   4
Atom  81O    basis set group =>   4
Atom  82O    basis set group =>   4
Atom  83O    basis set group =>   4
Atom  84O    basis set group =>   4
Atom  85O    basis set group =>   4
Atom  86O    basis set group =>   4
Atom  87O    basis set group =>   4
Atom  88O    basis set group =>   4
Atom  89O    basis set group =>   4
Atom  90O    basis set group =>   4
Atom  91O    basis set group =>   4
Atom  92O    basis set group =>   4
Atom  93O    basis set group =>   4
Atom  94O    basis set group =>   4
Atom  95O    basis set group =>   4
Atom  96O    basis set group =>   4
Atom  97O    basis set group =>   4
Atom  98O    basis set group =>   4
Atom  99O    basis set group =>   4
Atom 100O    basis set group =>   4
Atom 101O    basis set group =>   4
Atom 102O    basis set group =>   4
Atom 103O    basis set group =>   4
Atom 104O    basis set group =>   4
Atom 105O    basis set group =>   4
Atom 106O    basis set group =>   4
Atom 107O    basis set group =>   4
Atom 108O    basis set group =>   4
Atom 109O    basis set group =>   4
Atom 110O    basis set group =>   4
Atom 111O    basis set group =>   4
Atom 112O    basis set group =>   4
Atom 113O    basis set group =>   4
Atom 114O    basis set group =>   4
Atom 115O    basis set group =>   4
Atom 116O    basis set group =>   4
Atom 117O    basis set group =>   4
Atom 118O    basis set group =>   4
Atom 119O    basis set group =>   4
Atom 120O    basis set group =>   4
Atom 121O    basis set group =>   4
Atom 122O    basis set group =>   4
Atom 123O    basis set group =>   4
Atom 124O    basis set group =>   4
Atom 125O    basis set group =>   4
Atom 126O    basis set group =>   4
Atom 127O    basis set group =>   4
Atom 128O    basis set group =>   4
Atom 129O    basis set group =>   4
Atom 130O    basis set group =>   4
Atom 131O    basis set group =>   4
Atom 132O    basis set group =>   4
Atom 133O    basis set group =>   4
Atom 134O    basis set group =>   4
Atom 135O    basis set group =>   4
Atom 136O    basis set group =>   4
Atom 137O    basis set group =>   4
Atom 138S    basis set group =>   5
Atom 139S    basis set group =>   5
[...]
   Time for K (COSX):           617.814
   Time for XC-Integration:      53.324
   Time for Sigma-Completion:    11.847
   Size of expansion space: 40
   Lowest Energy          :     0.000766827260
   Maximum Energy change  :     0.000013663714 (vector 1)
   Maximum residual norm  :     0.000001541343
   Rebuilding the expansion space

                       ****Iteration    5****
   Time for densities:           24.545
   Time for RI-J (Direct):      213.493
   Time for K (COSX):          1098.975
   Time for XC-Integration:      97.966
   Time for Sigma-Completion:    23.623
   Size of expansion space: 20
   Lowest Energy          :     0.000766831406
   Maximum Energy change  :     0.000000681066 (vector 5)
   Maximum residual norm  :     0.000001409987

                       ****Iteration    6****
   Time for densities:           12.144
   Time for RI-J (Direct):      171.391
   Time for K (COSX):           617.528
   Time for XC-Integration:      53.068
   Time for Sigma-Completion:    12.018
   Size of expansion space: 30
   Lowest Energy          :     0.000766830231
   Maximum Energy change  :     0.000001296440 (vector 9)
   Maximum residual norm  :     0.000000390413

                       ****Iteration    7****
   Time for densities:           11.926
   Time for RI-J (Direct):      172.072
   Time for K (COSX):           618.057
   Time for XC-Integration:      53.311
   Time for Sigma-Completion:    11.840
   Size of expansion space: 40
   Lowest Energy          :     0.000766830047
   Maximum Energy change  :     0.000000794305 (vector 9)
   Maximum residual norm  :     0.000000143739

      *** CONVERGENCE OF RESIDUAL NORM REACHED ***

Storing the converged CI vectors               ... TDDFT_PBE0_FORMEB.cis1

                 *** DAVIDSON DONE ***

Total time for solving the CIS problem:  9340.039sec

------------------------------------
TD-DFT/TDA EXCITED STATES (SINGLETS)
------------------------------------

the weight of the individual excitations are printed if larger than 1.0e-02

STATE  1:  E=   0.000767 au      0.021 eV      168.3 cm**-1 <S**2> =   0.000000
   999a -> 1001a  :     0.982773 (c= -0.99134890)
   1000a -> 1001a  :     0.015180 (c=  0.12320794)

STATE  2:  E=   0.066190 au      1.801 eV    14527.1 cm**-1 <S**2> =   0.000000
   999a -> 1001a  :     0.011078 (c=  0.10525332)
   1000a -> 1001a  :     0.663028 (c=  0.81426548)
   1000a -> 1002a  :     0.073034 (c=  0.27024730)
   1000a -> 1004a  :     0.077202 (c= -0.27785300)
   1000a -> 1005a  :     0.094128 (c=  0.30680340)

STATE  3:  E=   0.072114 au      1.962 eV    15827.2 cm**-1 <S**2> =   0.000000
   1000a -> 1002a  :     0.265165 (c= -0.51494216)
   1000a -> 1003a  :     0.549281 (c= -0.74113462)
   1000a -> 1004a  :     0.167195 (c= -0.40889453)

STATE  4:  E=   0.072558 au      1.974 eV    15924.7 cm**-1 <S**2> =   0.000000
   1000a -> 1002a  :     0.311356 (c=  0.55799245)
   1000a -> 1003a  :     0.430593 (c= -0.65619559)
   1000a -> 1004a  :     0.243035 (c=  0.49298626)

STATE  5:  E=   0.073589 au      2.002 eV    16151.0 cm**-1 <S**2> =   0.000000
   1000a -> 1001a  :     0.068615 (c=  0.26194474)
   1000a -> 1002a  :     0.316064 (c= -0.56219599)
   1000a -> 1004a  :     0.490646 (c=  0.70046125)
   1000a -> 1005a  :     0.099973 (c=  0.31618484)

STATE  6:  E=   0.080137 au      2.181 eV    17587.9 cm**-1 <S**2> =   0.000000
   999a -> 1002a  :     0.028766 (c=  0.16960549)
   999a -> 1003a  :     0.025589 (c=  0.15996612)
   999a -> 1004a  :     0.018853 (c=  0.13730776)
   1000a -> 1001a  :     0.112519 (c=  0.33543870)
   1000a -> 1002a  :     0.025845 (c= -0.16076343)
   1000a -> 1005a  :     0.748371 (c= -0.86508446)

STATE  7:  E=   0.083004 au      2.259 eV    18217.3 cm**-1 <S**2> =   0.000000
   999a -> 1002a  :     0.135014 (c= -0.36744233)
   999a -> 1003a  :     0.644133 (c= -0.80257908)
   999a -> 1004a  :     0.179802 (c=  0.42403045)
   1000a -> 1005a  :     0.010773 (c= -0.10379134)

STATE  8:  E=   0.083521 au      2.273 eV    18330.7 cm**-1 <S**2> =   0.000000
   999a -> 1003a  :     0.177451 (c= -0.42124881)
   999a -> 1004a  :     0.757203 (c= -0.87017431)
   1000a -> 1001a  :     0.022063 (c=  0.14853686)
   1000a -> 1005a  :     0.018385 (c= -0.13559036)

STATE  9:  E=   0.083916 au      2.283 eV    18417.4 cm**-1 <S**2> =   0.000000
   999a -> 1002a  :     0.825608 (c= -0.90862969)
   999a -> 1003a  :     0.127326 (c=  0.35682717)
   999a -> 1004a  :     0.023160 (c= -0.15218315)

STATE 10:  E=   0.088004 au      2.395 eV    19314.6 cm**-1 <S**2> =   0.000000
   999a -> 1005a  :     0.956043 (c= -0.97777474)
   999a -> 1010a  :     0.020866 (c=  0.14445207)


                  ********************************
                  * Entering triplet calculation *
                  ********************************

------------------------
DAVIDSON-DIAGONALIZATION
------------------------

Dimension of the eigenvalue problem            ... 1108960
Number of roots to be determined               ...     10
Maximum size of the expansion space            ...     40
Maximum number of iterations                   ...    100
Convergence tolerance for the residual         ...    2.500e-07
Convergence tolerance for the energies         ...    2.500e-07
Orthogonality tolerance                        ...    1.000e-14
Level Shift                                    ...    0.000e+00
Constructing the preconditioner                ... o.k.
Building the initial guess                     ... o.k.
Number of trial vectors determined             ...     40


                       ****Iteration    0****
                <<< Triplet sigma vectors requested >>>

   Memory handling for direct AO based CIS:
   Memory per vector needed      ...   291 MB
   Memory needed                 ...  8739 MB
   Memory available              ... 300000 MB
   Number of vectors per batch   ...  1029
   Number of batches             ...     1
   Time for densities:           35.620
   Time for K (COSX):          1590.629
   Time for XC-Integration:     128.333
   Time for Sigma-Completion:    35.678
   Size of expansion space: 30
   Lowest Energy          :    -0.027365939034
   Maximum Energy change  :     0.088200929486 (vector 9)
   Maximum residual norm  :     0.000639056541

                       ****Iteration    1****
   Time for densities:           11.667
   Time for K (COSX):           619.409
   Time for XC-Integration:      43.589
   Time for Sigma-Completion:    12.054
   Size of expansion space: 40
   Lowest Energy          :    -0.028384395709
   Maximum Energy change  :     0.001018456675 (vector 0)
   Maximum residual norm  :     0.000006186929
   Rebuilding the expansion space

                       ****Iteration    2****
   Time for densities:           23.648
   Time for K (COSX):          1095.559
   Time for XC-Integration:      93.092
   Time for Sigma-Completion:    23.881
   Size of expansion space: 20
   Lowest Energy          :    -0.028386095228
   Maximum Energy change  :     0.000059053681 (vector 9)
   Maximum residual norm  :     0.000001292755

                       ****Iteration    3****
   Time for densities:           11.651
   Time for K (COSX):           619.692
   Time for XC-Integration:      45.573
   Time for Sigma-Completion:    11.887
   Size of expansion space: 30
   Lowest Energy          :    -0.028386117332
   Maximum Energy change  :     0.000014972726 (vector 9)
   Maximum residual norm  :     0.000000069786

      *** CONVERGENCE OF RESIDUAL NORM REACHED ***

Storing the converged CI vectors               ... TDDFT_PBE0_FORMEB.cis3

                 *** DAVIDSON DONE ***

------------------------------------
TD-DFT/TDA EXCITED STATES (TRIPLETS)
------------------------------------

the weight of the individual excitations are printed if larger than 1.0e-02

STATE  1:  E=  -0.028386 au     -0.772 eV    -6230.0 cm**-1 <S**2> =   2.000000
   1000a -> 1001a  :     0.990695 (c=  0.99533647)

STATE  2:  E=  -0.005265 au     -0.143 eV    -1155.5 cm**-1 <S**2> =   2.000000
   999a -> 1001a  :     0.993198 (c=  0.99659295)

STATE  3:  E=   0.066192 au      1.801 eV    14527.5 cm**-1 <S**2> =   2.000000
   1000a -> 1002a  :     0.100235 (c= -0.31659970)
   1000a -> 1003a  :     0.816026 (c= -0.90334177)
   1000a -> 1004a  :     0.011515 (c= -0.10730781)
   1000a -> 1007a  :     0.016744 (c= -0.12939792)
   1000a -> 1009a  :     0.018095 (c= -0.13451713)
   1000a -> 1013a  :     0.015017 (c= -0.12254218)

STATE  4:  E=   0.066345 au      1.805 eV    14561.1 cm**-1 <S**2> =   2.000000
   1000a -> 1002a  :     0.022725 (c= -0.15074665)
   1000a -> 1004a  :     0.892903 (c=  0.94493549)
   1000a -> 1005a  :     0.010314 (c=  0.10155968)
   1000a -> 1008a  :     0.028356 (c=  0.16839144)
   1000a -> 1012a  :     0.018302 (c= -0.13528657)

STATE  5:  E=   0.066730 au      1.816 eV    14645.5 cm**-1 <S**2> =   2.000000
   1000a -> 1002a  :     0.649002 (c= -0.80560676)
   1000a -> 1003a  :     0.092878 (c=  0.30475904)
   1000a -> 1004a  :     0.023228 (c= -0.15240757)
   1000a -> 1005a  :     0.187686 (c=  0.43322799)
   1000a -> 1014a  :     0.025246 (c=  0.15889051)

STATE  6:  E=   0.074048 au      2.015 eV    16251.7 cm**-1 <S**2> =   2.000000
   1000a -> 1002a  :     0.199182 (c=  0.44629822)
   1000a -> 1003a  :     0.017216 (c= -0.13121017)
   1000a -> 1005a  :     0.764299 (c=  0.87424206)

STATE  7:  E=   0.082652 au      2.249 eV    18140.1 cm**-1 <S**2> =   2.000000
   999a -> 1002a  :     0.234854 (c=  0.48461720)
   999a -> 1003a  :     0.728647 (c=  0.85360825)
   999a -> 1004a  :     0.010524 (c=  0.10258830)

STATE  8:  E=   0.083176 au      2.263 eV    18255.0 cm**-1 <S**2> =   2.000000
   999a -> 1003a  :     0.015082 (c= -0.12280728)
   999a -> 1004a  :     0.965157 (c=  0.98242383)

STATE  9:  E=   0.083786 au      2.280 eV    18388.9 cm**-1 <S**2> =   2.000000
   999a -> 1002a  :     0.756342 (c= -0.86967900)
   999a -> 1003a  :     0.225523 (c=  0.47489229)

STATE 10:  E=   0.087387 au      2.378 eV    19179.1 cm**-1 <S**2> =   2.000000
   999a -> 1005a  :     0.944441 (c= -0.97182371)
   999a -> 1010a  :     0.020219 (c=  0.14219297)


-----------------------------
TD-DFT/TDA-EXCITATION SPECTRA
-----------------------------

Center of mass = ( -4.3315,  4.3294, -4.3192)
Calculating the Dipole integrals                  ... done
Transforming integrals                            ... done
Calculating the Linear Momentum integrals         ... done
Transforming integrals                            ... done
Calculating angular momentum integrals            ... done
Transforming integrals                            ... done

-----------------------------------------------------------------------------
         ABSORPTION SPECTRUM VIA TRANSITION ELECTRIC DIPOLE MOMENTS
-----------------------------------------------------------------------------
State   Energy    Wavelength  fosc         T2        TX        TY        TZ  
        (cm-1)      (nm)                 (au**2)    (au)      (au)      (au) 
-----------------------------------------------------------------------------
   1     168.3   59417.8   0.000009717   0.01901  -0.11319   0.06460  -0.04495
   2   14527.1    688.4   1.610562830  36.49849  -3.46963   3.81527  -3.14704
   3   15827.2    631.8   0.073347086   1.52565   0.69587   0.01217  -1.02043
   4   15924.7    628.0   0.107347995   2.21921  -0.97121  -0.05199  -1.12838
   5   16151.0    619.2   0.133871501   2.72876  -1.46007   0.11404  -0.76417
   6   17587.9    568.6   0.542445264  10.15351  -1.93915   1.91408  -1.65212
   7   18217.3    548.9   0.039810887   0.71944  -0.57993   0.38709  -0.48299
   8   18330.7    545.5   0.105355850   1.89215  -0.75376   0.88645  -0.73363
   9   18417.4    543.0   0.035168173   0.62863  -0.47375   0.48809  -0.40739
  10   19314.6    517.7   0.012837580   0.21881   0.16048  -0.28835   0.33154
  11   -6230.0   -1605.1   spin forbidden (mult=3)
  12   -1155.5   -8654.3   spin forbidden (mult=3)
  13   14527.5    688.3   spin forbidden (mult=3)
  14   14561.1    686.8   spin forbidden (mult=3)
  15   14645.5    682.8   spin forbidden (mult=3)
  16   16251.7    615.3   spin forbidden (mult=3)
  17   18140.1    551.3   spin forbidden (mult=3)
  18   18255.0    547.8   spin forbidden (mult=3)
  19   18388.9    543.8   spin forbidden (mult=3)
  20   19179.1    521.4   spin forbidden (mult=3)

-----------------------------------------------------------------------------
         ABSORPTION SPECTRUM VIA TRANSITION VELOCITY DIPOLE MOMENTS
-----------------------------------------------------------------------------
State   Energy    Wavelength   fosc        P2         PX        PY        PZ  
        (cm-1)      (nm)                 (au**2)     (au)      (au)      (au) 
-----------------------------------------------------------------------------
   1     168.3   59417.8   0.290606393   0.00033  -0.01075   0.00924  -0.01155
   2   14527.1    688.4   1.938827760   0.19250  -0.26598   0.26367  -0.22855
   3   15827.2    631.8   0.023597094   0.00255  -0.01778   0.02579  -0.03964
   4   15924.7    628.0   0.002441959   0.00027  -0.00057  -0.01625  -0.00119
   5   16151.0    619.2   0.313515779   0.03461  -0.12076   0.10019  -0.09993
   6   17587.9    568.6   0.178968575   0.02151  -0.09034   0.08679  -0.07628
   7   18217.3    548.9   0.018340604   0.00228  -0.02940   0.02680  -0.02648
   8   18330.7    545.5   0.043898312   0.00550  -0.04302   0.04536  -0.03990
   9   18417.4    543.0   0.022811101   0.00287  -0.03331   0.03197  -0.02720
  10   19314.6    517.7   0.005122777   0.00068   0.01652  -0.01626   0.01179
  11   -6230.0   -1605.1   spin forbidden (mult=3)
  12   -1155.5   -8654.3   spin forbidden (mult=3)
  13   14527.5    688.3   spin forbidden (mult=3)
  14   14561.1    686.8   spin forbidden (mult=3)
  15   14645.5    682.8   spin forbidden (mult=3)
  16   16251.7    615.3   spin forbidden (mult=3)
  17   18140.1    551.3   spin forbidden (mult=3)
  18   18255.0    547.8   spin forbidden (mult=3)
  19   18388.9    543.8   spin forbidden (mult=3)
  20   19179.1    521.4   spin forbidden (mult=3)

-------------------------------------------------------------------
                             CD SPECTRUM
-------------------------------------------------------------------
State  Energy     Wavelength     R         MX        MY        MZ   
       (cm-1)       (nm)     (1e40*cgs)   (au)      (au)      (au)  
-------------------------------------------------------------------
   1     168.3   59417.8    -19.66545   0.24133  -0.20514   0.02543
   2   14527.1    688.4     84.77365  -0.11718   0.00172   0.07414
   3   15827.2    631.8     15.01523   0.11619   0.20003   0.05041
   4   15924.7    628.0      0.25473   0.14264   0.03819  -0.12501
   5   16151.0    619.2      9.09458   0.05556  -0.05301  -0.13931
   6   17587.9    568.6    -40.80985  -0.01873  -0.07669  -0.01447
   7   18217.3    548.9     -6.41960   0.03326   0.03353   0.01512
   8   18330.7    545.5     -4.93564   0.02698   0.01976   0.01043
   9   18417.4    543.0      0.25361  -0.01155  -0.01239  -0.00273
  10   19314.6    517.7     -1.97257  -0.04137  -0.01581  -0.00635
  11   -6230.0   -1605.1 spin forbidden
  12   -1155.5   -8654.3 spin forbidden
  13   14527.5    688.3 spin forbidden
  14   14561.1    686.8 spin forbidden
  15   14645.5    682.8 spin forbidden
  16   16251.7    615.3 spin forbidden
  17   18140.1    551.3 spin forbidden
  18   18255.0    547.8 spin forbidden
  19   18388.9    543.8 spin forbidden
  20   19179.1    521.4 spin forbidden

-------------------------------------------------------------------
         CD SPECTRUM VIA TRANSITION VELOCITY DIPOLE MOMENTS        
-------------------------------------------------------------------
State  Energy     Wavelength     R         MX        MY        MZ   
       (cm-1)       (nm)     (1e40*cgs)   (au)      (au)      (au)  
-------------------------------------------------------------------
   1     168.3   59417.8    2940.50386   0.24133  -0.20514   0.02543
   2   14527.1    688.4    -104.53347  -0.11718   0.00172   0.07414
   3   15827.2    631.8     -7.16470   0.11619   0.20003   0.05041
   4   15924.7    628.0      3.59270   0.14264   0.03819  -0.12501
   5   16151.0    619.2    -12.18156   0.05556  -0.05301  -0.13931
   6   17587.9    568.6     22.71086  -0.01873  -0.07669  -0.01447
   7   18217.3    548.9      2.72605   0.03326   0.03353   0.01512
   8   18330.7    545.5      3.83956   0.02698   0.01976   0.01043
   9   18417.4    543.0     -0.35363  -0.01155  -0.01239  -0.00273
  10   19314.6    517.7      2.68373  -0.04137  -0.01581  -0.00635
  11   -6230.0   -1605.1 spin forbidden
  12   -1155.5   -8654.3 spin forbidden
  13   14527.5    688.3 spin forbidden
  14   14561.1    686.8 spin forbidden
  15   14645.5    682.8 spin forbidden
  16   16251.7    615.3 spin forbidden
  17   18140.1    551.3 spin forbidden
  18   18255.0    547.8 spin forbidden
  19   18388.9    543.8 spin forbidden
  20   19179.1    521.4 spin forbidden

Total run time:    13927.909 sec

           *** ORCA-CIS/TD-DFT FINISHED WITHOUT ERROR ***

Maximum memory used throughout the entire CIS-calculation: 9009.7 MB

-----------------------
CIS/TD-DFT TOTAL ENERGY
-----------------------

    E(SCF)  = -57684.862355350 Eh
    DE(CIS) =      0.000766830 Eh (Root  1)
    ----------------------------- ---------
    E(tot)  = -57684.861588520 Eh


-------------------------   --------------------
FINAL SINGLE POINT ENERGY    -57684.861588519816
-------------------------   --------------------


                            ***************************************
                            *     ORCA property calculations      *
                            ***************************************

                                    ---------------------
                                    Active property flags
                                    ---------------------
   (+) Dipole Moment


------------------------------------------------------------------------------
                       ORCA ELECTRIC PROPERTIES CALCULATION
------------------------------------------------------------------------------

Dipole Moment Calculation                       ... on
Quadrupole Moment Calculation                   ... off
Polarizability Calculation                      ... off
GBWName                                         ... TDDFT_PBE0_FORMEB.gbw
Electron density                                ... TDDFT_PBE0_FORMEB.scfp
The origin for moment calculation is the CENTER OF MASS  = (-4.331481,  4.329403 -4.319249)

-------------
DIPOLE MOMENT
-------------
                                X             Y             Z
Electronic contribution:      0.44487      -0.00705      -1.96356
Nuclear contribution   :      2.67824      -2.97499       2.32702
                        -----------------------------------------
Total Dipole Moment    :      3.12311      -2.98205       0.36346
                        -----------------------------------------
Magnitude (a.u.)       :      4.33342
Magnitude (Debye)      :     11.01467



--------------------
Rotational spectrum 
--------------------
 
Rotational constants in cm-1:     0.000218     0.000111     0.000110 
Rotational constants in MHz :     6.525961     3.315435     3.312190 

 Dipole components along the rotational axes: 
x,y,z [a.u.] :    -3.736270    -2.138922     0.493759 
x,y,z [Debye]:    -9.496845    -5.436706     1.255036 

 

Timings for individual modules:

Sum of individual times         ...    50921.930 sec (= 848.699 min)
GTO integral calculation        ...      318.241 sec (=   5.304 min)   0.6 %
SCF iterations                  ...    36667.637 sec (= 611.127 min)  72.0 %
CIS module                      ...    13936.053 sec (= 232.268 min)  27.4 %
                             ****ORCA TERMINATED NORMALLY****
TOTAL RUN TIME: 0 days 14 hours 8 minutes 57 seconds 317 msec
