
                                 *****************
                                 * O   R   C   A *
                                 *****************

           --- An Ab Initio, DFT and Semiempirical electronic structure package ---

                  #######################################################
                  #                        -***-                        #
                  #  Department of molecular theory and spectroscopy    #
                  #              Directorship: Frank Neese              #
                  # Max Planck Institute for Chemical Energy Conversion #
                  #                  D-45470 Muelheim/Ruhr              #
                  #                       Germany                       #
                  #                                                     #
                  #                  All rights reserved                #
                  #                        -***-                        #
                  #######################################################


                         Program Version 4.0.0.2 - RELEASE -


 With contributions from (in alphabetic order):
   Daniel Aravena         : Magnetic Properties
   Michael Atanasov       : Ab Initio Ligand Field Theory
   Ute Becker             : Parallelization
   Martin Brehm           : Molecular dynamics
   Dmytro Bykov           : SCF Hessian
   Vijay G. Chilkuri      : MRCI spin determinant printing
   Dipayan Datta          : RHF DLPNO-CCSD density
   Achintya Kumar Dutta   : EOM-CC, STEOM-CC
   Dmitry Ganyushin       : Spin-Orbit,Spin-Spin,Magnetic field MRCI
   Yang Guo               : DLPNO-NEVPT2, CIM, IAO-localization
   Andreas Hansen         : Spin unrestricted coupled pair/coupled cluster methods
   Lee Huntington         : MR-EOM, pCC
   Robert Izsak           : Overlap fitted RIJCOSX, COSX-SCS-MP3, EOM
   Christian Kollmar      : KDIIS, OOCD, Brueckner-CCSD(T), CCSD density
   Simone Kossmann        : Meta GGA functionals, TD-DFT gradient, OOMP2, MP2 Hessian
   Martin Krupicka        : AUTO-CI
   Dagmar Lenk            : GEPOL surface
   Dimitrios Liakos       : Extrapolation schemes; parallel MDCI
   Dimitrios Manganas     : ROCIS; embedding schemes
   Dimitrios Pantazis     : SARC Basis sets
   Taras Petrenko         : DFT Hessian,TD-DFT gradient, ASA, ECA, R-Raman, ABS, FL, XAS/XES, NRVS
   Peter Pinski           : DLPNO-MP2
   Christoph Reimann      : Effective Core Potentials
   Marius Retegan         : Local ZFS, SOC
   Christoph Riplinger    : Optimizer, TS searches, QM/MM, DLPNO-CCSD(T), (RO)-DLPNO pert. Triples
   Tobias Risthaus        : Range-separated hybrids, TD-DFT gradient, RPA, STAB
   Michael Roemelt        : Restricted open shell CIS
   Masaaki Saitow         : Open-shell DLPNO
   Barbara Sandhoefer     : DKH picture change effects
   Kantharuban Sivalingam : CASSCF convergence, NEVPT2, FIC-MRCI
   Georgi Stoychev        : AutoAux
   Boris Wezisla          : Elementary symmetry handling
   Frank Wennmohs         : Technical directorship


 We gratefully acknowledge several colleagues who have allowed us to
 interface, adapt or use parts of their codes:
   Stefan Grimme, W. Hujo, H. Kruse,             : VdW corrections, initial TS optimization,
                  C. Bannwarth                     DFT functionals, gCP, sTDA/sTD-DF
   Ed Valeev                                     : LibInt (2-el integral package), F12 methods
   Garnet Chan, S. Sharma, J. Yang, R. Olivares  : DMRG
   Ulf Ekstrom                                   : XCFun DFT Library
   Mihaly Kallay                                 : mrcc  (arbitrary order and MRCC methods)
   Jiri Pittner, Ondrej Demel                    : Mk-CCSD
   Frank Weinhold                                : gennbo (NPA and NBO analysis)
   Christopher J. Cramer and Donald G. Truhlar   : smd solvation model


 Your calculation uses the libint2 library for the computation of 2-el integrals
 For citations please refer to: http://libint.valeyev.net

 This ORCA versions uses:
   CBLAS   interface :  Fast vector & matrix operations
   LAPACKE interface :  Fast linear algebra routines
   SCALAPACK package :  Parallel linear algebra routines




*****************************************
The coordinations will be read from file: opt.xyz
*****************************************


Your calculation utilizes the basis: 6-31G(d)
   H-He, Li-Ne : W. J. Hehre, R. Ditchfield and J.A. Pople, J. Chem. Phys. 56, 2257 (1972).
                 Note: He and Ne are unpublished basis sets taken from the Gaussian program.
                 Note: Li and B from J. D. Dill and J. A. Pople, J. Chem. Phys. 62, 2921 (1975).
   Na - Ar     : M. M. Francl, W. J. Pietro, W. J. Hehre, J. S. Binkley, M. S. Gordon, 
                 D. J. DeFrees and J. A. Pople, J. Chem. Phys. 77, 3654 (1982).
   K - Zn      : V. A. Rassolov, J. A. Pople, M. A. Ratner, and T. L. Windus, J. Chem. Phys. 109, 1223 (1998).

================================================================================
                                        WARNINGS
                       Please study these warnings very carefully!
================================================================================

INFO   : Checking CIS options ...

INFO   : the flag for use of LIBINT has been found!

================================================================================
                                       INPUT FILE
================================================================================
NAME = u2.inp
| 10> ! B3LYP 6-31G(d) Grid5 FinalGrid6 TightSCF PAL8
| 11> 
| 12> %base"tddft"
| 13> %maxcore 12000 # Memory settings often need to be modified when running TDDFT. Check batching info in the TDDFT output.
| 14> %tddft
| 15> nroots 20
| 16> maxdim 10
| 17> triplets true
| 18> end
| 19> 
| 20> * xyzfile 0 1 opt.xyz
| 21> 
| 22>                          ****END OF INPUT****
================================================================================

                       ****************************
                       * Single Point Calculation *
                       ****************************

---------------------------------
CARTESIAN COORDINATES (ANGSTROEM)
---------------------------------
  C     -4.040382    1.000088   -0.171950
  C     -3.764678   -0.318012    0.248388
  C     -3.019397    1.917272   -0.399695
  C     -1.697783    1.495364   -0.197392
  C     -1.439632    0.164734    0.220812
  C     -2.459287   -0.761107    0.451331
  C      0.440852    1.328626   -0.030920
  C      1.869148    1.667822   -0.040293
  C      2.823317    0.693127   -0.068368
  C      4.276723    0.836993   -0.036427
  C      4.945115    1.967799    0.484214
  C      6.338213    2.034138    0.496572
  C      7.106735    0.982121   -0.006451
  C      6.463394   -0.152559   -0.510190
  C      5.073625   -0.224241   -0.519637
  H      4.370934    2.776429    0.924562
  H      6.825924    2.913150    0.911457
  H      8.191910    1.040865    0.001041
  H      7.047732   -0.984420   -0.896145
  H      4.583692   -1.112204   -0.914203
  H      2.470008   -0.326994   -0.197230
  N      2.097052    3.038733   -0.016947
  H      1.262193    3.566543   -0.255956
  H      2.923450    3.344369   -0.517442
  N     -0.509222    2.189866   -0.340757
  N     -0.060977    0.089445    0.312835
  H      0.477384   -0.678646    0.684134
  H     -5.073903    1.301464   -0.319837
  H     -4.589398   -1.005324    0.416779
  H     -2.251506   -1.778163    0.772572
  H     -3.225826    2.933021   -0.723395

----------------------------
CARTESIAN COORDINATES (A.U.)
----------------------------
  NO LB      ZA    FRAG     MASS         X           Y           Z
   0 C     6.0000    0    12.011   -7.635215    1.889892   -0.324938
   1 C     6.0000    0    12.011   -7.114211   -0.600956    0.469386
   2 C     6.0000    0    12.011   -5.705834    3.623119   -0.755314
   3 C     6.0000    0    12.011   -3.208346    2.825829   -0.373017
   4 C     6.0000    0    12.011   -2.720510    0.311302    0.417274
   5 C     6.0000    0    12.011   -4.647378   -1.438284    0.852892
   6 C     6.0000    0    12.011    0.833089    2.510740   -0.058430
   7 C     6.0000    0    12.011    3.532179    3.151728   -0.076143
   8 C     6.0000    0    12.011    5.335295    1.309820   -0.129196
   9 C     6.0000    0    12.011    8.081835    1.581687   -0.068836
  10 C     6.0000    0    12.011    9.344913    3.718602    0.915032
  11 C     6.0000    0    12.011   11.977486    3.843964    0.938385
  12 C     6.0000    0    12.011   13.429784    1.855939   -0.012191
  13 C     6.0000    0    12.011   12.214045   -0.288295   -0.964120
  14 C     6.0000    0    12.011    9.587762   -0.423753   -0.981972
  15 H     1.0000    0     1.008    8.259869    5.246690    1.747168
  16 H     1.0000    0     1.008   12.899127    5.505055    1.722403
  17 H     1.0000    0     1.008   15.480467    1.966951    0.001967
  18 H     1.0000    0     1.008   13.318283   -1.860284   -1.693468
  19 H     1.0000    0     1.008    8.661922   -2.101760   -1.727594
  20 H     1.0000    0     1.008    4.667639   -0.617929   -0.372710
  21 N     7.0000    0    14.007    3.962854    5.742373   -0.032024
  22 H     1.0000    0     1.008    2.385200    6.739789   -0.483687
  23 H     1.0000    0     1.008    5.524520    6.319942   -0.977823
  24 N     7.0000    0    14.007   -0.962290    4.138246   -0.643938
  25 N     7.0000    0    14.007   -0.115229    0.169027    0.591172
  26 H     1.0000    0     1.008    0.902124   -1.282455    1.292826
  27 H     1.0000    0     1.008   -9.588287    2.459411   -0.604405
  28 H     1.0000    0     1.008   -8.672705   -1.899787    0.787599
  29 H     1.0000    0     1.008   -4.254730   -3.360242    1.459949
  30 H     1.0000    0     1.008   -6.095928    5.542607   -1.367019

--------------------------------
INTERNAL COORDINATES (ANGSTROEM)
--------------------------------
 C      0   0   0     0.000000000000     0.00000000     0.00000000
 C      1   0   0     1.410703290822     0.00000000     0.00000000
 C      1   2   0     1.391223889728   121.42209751     0.00000000
 C      3   1   2     1.401996977339   118.02017690   359.91516729
 C      4   3   1     1.418490172520   119.76155197     0.30709449
 C      2   1   3     1.393401162313   121.57476716   359.85744189
 C      4   3   1     2.151575074613   166.28367030   179.84018466
 C      7   4   3     1.468050876943   161.56255530     2.34626907
 C      8   7   4     1.364278553119   121.03176031   196.45155658
 C      9   8   7     1.460858187475   128.68350728   182.26779643
 C     10   9   8     1.412989177134   123.88243380    22.90565666
 C     11  10   9     1.394731325683   120.91792697   179.31905842
 C     12  11  10     1.396566999186   120.70575652     0.00000000
 C     13  12  11     1.398262879814   119.19987230   359.19082520
 C     14  13  12     1.391648580489   120.24662758     0.57112364
 H     11  10   9     1.085113107702   119.70969843     2.28808902
 H     12  11  10     1.087498656032   119.32553070   180.53332409
 H     13  12  11     1.086789432749   120.41608301   179.69856562
 H     14  13  12     1.087383916783   120.09417971   180.61893339
 H     15  14  13     1.088207339589   119.61070749   179.99271386
 H      9   8   7     1.087234949053   116.45546290     6.73500837
 N      8   7   4     1.389921293556   112.78741844    16.49324489
 H     22   8   7     1.016217212508   111.93940977   344.10728432
 H     22   8   7     1.013332149908   115.01868159   212.76975250
 N      7   4   3     1.319231727668    38.31589243     0.63897955
 N      7   4  25     1.380423507920    74.18620156   180.00995827
 H     26   7   4     1.008790830127   125.53095185   187.49530280
 H      1   2   3     1.086676031248   119.04913398   180.00148013
 H      2   1   3     1.086699116207   119.26233063   179.94762770
 H      6   2   1     1.086633075615   121.32075791   180.16755247
 H      3   1   2     1.085882498848   121.73372831   179.99391424

---------------------------
INTERNAL COORDINATES (A.U.)
---------------------------
 C      0   0   0     0.000000000000     0.00000000     0.00000000
 C      1   0   0     2.665842875874     0.00000000     0.00000000
 C      1   2   0     2.629032142555   121.42209751     0.00000000
 C      3   1   2     2.649390327756   118.02017690   359.91516729
 C      4   3   1     2.680557949722   119.76155197     0.30709449
 C      2   1   3     2.633146591459   121.57476716   359.85744189
 C      4   3   1     4.065887647589   166.28367030   179.84018466
 C      7   4   3     2.774214108085   161.56255530     2.34626907
 C      8   7   4     2.578112835778   121.03176031   196.45155658
 C      9   8   7     2.760621894824   128.68350728   182.26779643
 C     10   9   8     2.670162574978   123.88243380    22.90565666
 C     11  10   9     2.635660235941   120.91792697   179.31905842
 C     12  11  10     2.639129156134   120.70575652     0.00000000
 C     13  12  11     2.642333906076   119.19987230   359.19082520
 C     14  13  12     2.629834691785   120.24662758     0.57112364
 H     11  10   9     2.050566597885   119.70969843     2.28808902
 H     12  11  10     2.055074630909   119.32553070   180.53332409
 H     13  12  11     2.053734393135   120.41608301   179.69856562
 H     14  13  12     2.054857805150   120.09417971   180.61893339
 H     15  14  13     2.056413848747   119.61070749   179.99271386
 H      9   8   7     2.054576296938   116.45546290     6.73500837
 N      8   7   4     2.626570592525   112.78741844    16.49324489
 H     22   8   7     1.920372224217   111.93940977   344.10728432
 H     22   8   7     1.914920246023   115.01868159   212.76975250
 N      7   4   3     2.492986672472    38.31589243     0.63897955
 N      7   4  25     2.608622378796    74.18620156   180.00995827
 H     26   7   4     1.906338395352   125.53095185   187.49530280
 H      1   2   3     2.053520095355   119.04913398   180.00148013
 H      2   1   3     2.053563719605   119.26233063   179.94762770
 H      6   2   1     2.053438920973   121.32075791   180.16755247
 H      3   1   2     2.052020536442   121.73372831   179.99391424

---------------------
BASIS SET INFORMATION
---------------------
There are 3 groups of distinct atoms

 Group   1 Type C   : 10s4p1d contracted to 3s2p1d pattern {631/31/1}
 Group   2 Type H   : 4s contracted to 2s pattern {31}
 Group   3 Type N   : 10s4p1d contracted to 3s2p1d pattern {631/31/1}

Atom   0C    basis set group =>   1
Atom   1C    basis set group =>   1
Atom   2C    basis set group =>   1
Atom   3C    basis set group =>   1
Atom   4C    basis set group =>   1
Atom   5C    basis set group =>   1
Atom   6C    basis set group =>   1
Atom   7C    basis set group =>   1
Atom   8C    basis set group =>   1
Atom   9C    basis set group =>   1
Atom  10C    basis set group =>   1
Atom  11C    basis set group =>   1
Atom  12C    basis set group =>   1
Atom  13C    basis set group =>   1
Atom  14C    basis set group =>   1
Atom  15H    basis set group =>   2
Atom  16H    basis set group =>   2
Atom  17H    basis set group =>   2
Atom  18H    basis set group =>   2
Atom  19H    basis set group =>   2
Atom  20H    basis set group =>   2
Atom  21N    basis set group =>   3
Atom  22H    basis set group =>   2
Atom  23H    basis set group =>   2
Atom  24N    basis set group =>   3
Atom  25N    basis set group =>   3
Atom  26H    basis set group =>   2
Atom  27H    basis set group =>   2
Atom  28H    basis set group =>   2
Atom  29H    basis set group =>   2
Atom  30H    basis set group =>   2


           ************************************************************
           *        Program running with 8 parallel MPI-processes     *
           *              working on a common directory               *
           ************************************************************
------------------------------------------------------------------------------
                           ORCA GTO INTEGRAL CALCULATION
------------------------------------------------------------------------------

                         BASIS SET STATISTICS AND STARTUP INFO

 # of primitive gaussian shells          ...  322
 # of primitive gaussian functions       ...  538
 # of contracted shells                  ...  134
 # of contracted basis functions         ...  278
 Highest angular momentum                ...    2
 Maximum contraction depth               ...    6
 Integral package used                   ... LIBINT
 Integral threshhold            Thresh   ...  2.500e-11
 Primitive cut-off              TCut     ...  2.500e-12


------------------------------ INTEGRAL EVALUATION ----------------------------


 * One electron integrals 
 Pre-screening matrix                    ... done
 Shell pair data                         ... done (   0.007 sec)



           ************************************************************
           *        Program running with 8 parallel MPI-processes     *
           *              working on a common directory               *
           ************************************************************
-------------------------------------------------------------------------------
                                 ORCA SCF
-------------------------------------------------------------------------------

------------
SCF SETTINGS
------------
Hamiltonian:
 Density Functional     Method          .... DFT(GTOs)
 Exchange Functional    Exchange        .... B88
   X-Alpha parameter    XAlpha          ....  0.666667
   Becke's b parameter  XBeta           ....  0.004200
 Correlation Functional Correlation     .... LYP
 LDA part of GGA corr.  LDAOpt          .... VWN-5
 Gradients option       PostSCFGGA      .... off
 Hybrid DFT is turned on
   Fraction HF Exchange ScalHFX         ....  0.200000
   Scaling of DF-GGA-X  ScalDFX         ....  0.720000
   Scaling of DF-GGA-C  ScalDFC         ....  0.810000
   Scaling of DF-LDA-C  ScalLDAC        ....  1.000000
   Perturbative correction              ....  0.000000
   NL short-range parameter             ....  4.800000


General Settings:
 Integral files         IntName         .... tddft
 Hartree-Fock type      HFTyp           .... RHF
 Total Charge           Charge          ....    0
 Multiplicity           Mult            ....    1
 Number of Electrons    NEL             ....  124
 Basis Dimension        Dim             ....  278
 Nuclear Repulsion      ENuc            ....   1138.2791014692 Eh

Convergence Acceleration:
 DIIS                   CNVDIIS         .... on
   Start iteration      DIISMaxIt       ....    12
   Startup error        DIISStart       ....  0.200000
   # of expansion vecs  DIISMaxEq       ....     5
   Bias factor          DIISBfac        ....   1.050
   Max. coefficient     DIISMaxC        ....  10.000
 Newton-Raphson         CNVNR           .... off
 SOSCF                  CNVSOSCF        .... on
   Start iteration      SOSCFMaxIt      ....   150
   Startup grad/error   SOSCFStart      ....  0.003300
 Level Shifting         CNVShift        .... on
   Level shift para.    LevelShift      ....    0.2500
   Turn off err/grad.   ShiftErr        ....    0.0010
 Zerner damping         CNVZerner       .... off
 Static damping         CNVDamp         .... on
   Fraction old density DampFac         ....    0.7000
   Max. Damping (<1)    DampMax         ....    0.9800
   Min. Damping (>=0)   DampMin         ....    0.0000
   Turn off err/grad.   DampErr         ....    0.1000
 Fernandez-Rico         CNVRico         .... off

SCF Procedure:
 Maximum # iterations   MaxIter         ....   125
 SCF integral mode      SCFMode         .... Direct
   Integral package                     .... LIBINT
 Reset frequeny         DirectResetFreq ....    20
 Integral Threshold     Thresh          ....  2.500e-11 Eh
 Primitive CutOff       TCut            ....  2.500e-12 Eh

Convergence Tolerance:
 Convergence Check Mode ConvCheckMode   .... Total+1el-Energy
 Convergence forced     ConvForced      .... 0
 Energy Change          TolE            ....  1.000e-08 Eh
 1-El. energy change                    ....  1.000e-05 Eh
 Orbital Gradient       TolG            ....  1.000e-05
 Orbital Rotation angle TolX            ....  1.000e-05
 DIIS Error             TolErr          ....  5.000e-07


Diagonalization of the overlap matrix:
Smallest eigenvalue                        ... 4.223e-04
Time for diagonalization                   ...    0.038 sec
Threshold for overlap eigenvalues          ... 1.000e-08
Number of eigenvalues below threshold      ... 0
Time for construction of square roots      ...    0.019 sec
Total time needed                          ...    0.057 sec

---------------------
INITIAL GUESS: MOREAD
---------------------
Guess MOs are being read from file: opt.gbw
Input Geometry matches current geometry (good)
Input basis set matches current basis set (good)
MOs were renormalized
MOs were reorthogonalized (Cholesky)
                      ------------------
                      INITIAL GUESS DONE (   0.1 sec)
                      ------------------
-------------------
DFT GRID GENERATION
-------------------

General Integration Accuracy     IntAcc      ...  5.010
Radial Grid Type                 RadialGrid  ... Gauss-Chebyshev
Angular Grid (max. acc.)         AngularGrid ... Lebedev-434
Angular grid pruning method      GridPruning ... 3 (G Style)
Weight generation scheme         WeightScheme... Becke
Basis function cutoff            BFCut       ...    1.0000e-11
Integration weight cutoff        WCut        ...    1.0000e-14
Grids for H and He will be reduced by one unit

# of grid points (after initial pruning)     ... 279236 (   0.0 sec)
# of grid points (after weights+screening)   ... 248246 (   0.9 sec)
nearest neighbour list constructed           ...    0.0 sec
Grid point re-assignment to atoms done       ...    0.1 sec
Grid point division into batches done        ...    2.5 sec
Reduced shell lists constructed in    3.2 sec

Total number of grid points                  ...   248246
Total number of batches                      ...     3895
Average number of points per batch           ...       63
Average number of grid points per atom       ...     8008
Average number of shells per batch           ...    59.04 (44.06%)
Average number of basis functions per batch  ...   126.73 (45.59%)
Average number of large shells per batch     ...    44.45 (75.28%)
Average number of large basis fcns per batch ...    97.54 (76.97%)
Maximum spatial batch extension              ...   5.40, 10.10, 23.15 au
Average spatial batch extension              ...   0.14,  0.15,  0.19 au

Time for grid setup =    4.365 sec

--------------
SCF ITERATIONS
--------------
ITER       Energy         Delta-E        Max-DP      RMS-DP      [F,P]     Damp
               ***  Starting incremental Fock matrix formation  ***
                      *** Initiating the SOSCF procedure ***
                      *** Re-Reading the Fockian *** 
                      *** Removing any level shift *** 
ITER      Energy       Delta-E        Grad      Rot      Max-DP    RMS-DP
  0   -743.21693626 -743.2169362649  0.000001  0.000001  0.000003  0.000000
               *** Restarting incremental Fock matrix formation ***
                  ***Gradient check signals convergence***
              ***Rediagonalizing the Fockian in SOSCF/NRSCF***

               *****************************************************
               *                     SUCCESS                       *
               *           SCF CONVERGED AFTER   1 CYCLES          *
               *****************************************************


----------------
TOTAL SCF ENERGY
----------------

Total Energy       :         -743.21693626 Eh          -20223.96100 eV

Components:
Nuclear Repulsion  :         1138.27910147 Eh           30974.14905 eV
Electronic Energy  :        -1881.49603773 Eh          -51198.11005 eV
One Electron Energy:        -3264.61668357 Eh          -88834.73623 eV
Two Electron Energy:         1383.12064584 Eh           37636.62618 eV

Virial components:
Potential Energy   :        -1482.01941810 Eh          -40327.79859 eV
Kinetic Energy     :          738.80248184 Eh           20103.83759 eV
Virial Ratio       :            2.00597515


DFT components:
N(Alpha)           :       62.000013203825 electrons
N(Beta)            :       62.000013203825 electrons
N(Total)           :      124.000026407650 electrons
E(X)               :      -81.277165769296 Eh       
E(C)               :       -4.948335678306 Eh       
E(XC)              :      -86.225501447602 Eh       

---------------
SCF CONVERGENCE
---------------

  Last Energy change         ...   -2.1600e-11  Tolerance :   1.0000e-08
  Last MAX-Density change    ...    5.7514e-06  Tolerance :   1.0000e-07
  Last RMS-Density change    ...    1.0918e-07  Tolerance :   5.0000e-09
  Last Orbital Gradient      ...    8.2570e-07  Tolerance :   1.0000e-05
  Last Orbital Rotation      ...    3.4700e-06  Tolerance :   1.0000e-05

             **** THE GBW FILE WAS UPDATED (tddft.gbw) ****
             **** DENSITY FILE WAS UPDATED (tddft.scfp.tmp) ****
             **** ENERGY FILE WAS UPDATED (tddft.en.tmp) ****
----------------
ORBITAL ENERGIES
----------------

  NO   OCC          E(Eh)            E(eV) 
   0   2.0000     -14.383204      -391.3869 
   1   2.0000     -14.328669      -389.9029 
   2   2.0000     -14.314462      -389.5163 
   3   2.0000     -10.253269      -279.0056 
   4   2.0000     -10.231167      -278.4042 
   5   2.0000     -10.219524      -278.0874 
   6   2.0000     -10.201746      -277.6036 
   7   2.0000     -10.190629      -277.3011 
   8   2.0000     -10.186509      -277.1890 
   9   2.0000     -10.180876      -277.0357 
  10   2.0000     -10.178176      -276.9623 
  11   2.0000     -10.177887      -276.9544 
  12   2.0000     -10.177819      -276.9525 
  13   2.0000     -10.176327      -276.9119 
  14   2.0000     -10.176144      -276.9070 
  15   2.0000     -10.176122      -276.9064 
  16   2.0000     -10.175079      -276.8780 
  17   2.0000     -10.174821      -276.8709 
  18   2.0000      -1.016812       -27.6688 
  19   2.0000      -0.917250       -24.9597 
  20   2.0000      -0.877145       -23.8683 
  21   2.0000      -0.846432       -23.0326 
  22   2.0000      -0.838305       -22.8114 
  23   2.0000      -0.776462       -21.1286 
  24   2.0000      -0.746651       -20.3174 
  25   2.0000      -0.738154       -20.0862 
  26   2.0000      -0.736649       -20.0452 
  27   2.0000      -0.706518       -19.2253 
  28   2.0000      -0.642792       -17.4913 
  29   2.0000      -0.624674       -16.9983 
  30   2.0000      -0.602302       -16.3895 
  31   2.0000      -0.596671       -16.2362 
  32   2.0000      -0.586824       -15.9683 
  33   2.0000      -0.561859       -15.2890 
  34   2.0000      -0.539305       -14.6752 
  35   2.0000      -0.516822       -14.0634 
  36   2.0000      -0.509226       -13.8567 
  37   2.0000      -0.487189       -13.2571 
  38   2.0000      -0.475205       -12.9310 
  39   2.0000      -0.449660       -12.2359 
  40   2.0000      -0.447797       -12.1852 
  41   2.0000      -0.443515       -12.0687 
  42   2.0000      -0.438716       -11.9381 
  43   2.0000      -0.431484       -11.7413 
  44   2.0000      -0.425699       -11.5839 
  45   2.0000      -0.412082       -11.2133 
  46   2.0000      -0.400017       -10.8850 
  47   2.0000      -0.391500       -10.6533 
  48   2.0000      -0.369005       -10.0411 
  49   2.0000      -0.361880        -9.8472 
  50   2.0000      -0.354408        -9.6439 
  51   2.0000      -0.351194        -9.5565 
  52   2.0000      -0.340271        -9.2592 
  53   2.0000      -0.333058        -9.0630 
  54   2.0000      -0.326045        -8.8721 
  55   2.0000      -0.303196        -8.2504 
  56   2.0000      -0.276425        -7.5219 
  57   2.0000      -0.264488        -7.1971 
  58   2.0000      -0.244068        -6.6414 
  59   2.0000      -0.230675        -6.2770 
  60   2.0000      -0.223984        -6.0949 
  61   2.0000      -0.185991        -5.0611 
  62   0.0000      -0.044766        -1.2181 
  63   0.0000       0.004747         0.1292 
  64   0.0000       0.006784         0.1846 
  65   0.0000       0.024208         0.6587 
  66   0.0000       0.044612         1.2140 
  67   0.0000       0.074183         2.0186 
  68   0.0000       0.096060         2.6139 
  69   0.0000       0.102898         2.8000 
  70   0.0000       0.110209         2.9989 
  71   0.0000       0.117357         3.1935 
  72   0.0000       0.135894         3.6979 
  73   0.0000       0.146482         3.9860 
  74   0.0000       0.158822         4.3218 
  75   0.0000       0.164743         4.4829 
  76   0.0000       0.171709         4.6724 
  77   0.0000       0.177200         4.8218 
  78   0.0000       0.179226         4.8770 
  79   0.0000       0.182352         4.9620 
  80   0.0000       0.187602         5.1049 
  81   0.0000       0.202064         5.4985 
  82   0.0000       0.211324         5.7504 
  83   0.0000       0.220593         6.0026 
  84   0.0000       0.240565         6.5461 
  85   0.0000       0.257084         6.9956 
  86   0.0000       0.273115         7.4318 
  87   0.0000       0.291783         7.9398 
  88   0.0000       0.296234         8.0609 
  89   0.0000       0.313107         8.5201 
  90   0.0000       0.317153         8.6302 
  91   0.0000       0.329269         8.9599 
  92   0.0000       0.335916         9.1407 
  93   0.0000       0.347605         9.4588 
  94   0.0000       0.363546         9.8926 
  95   0.0000       0.379751        10.3336 
  96   0.0000       0.403722        10.9858 
  97   0.0000       0.431732        11.7480 
  98   0.0000       0.461378        12.5547 
  99   0.0000       0.494114        13.4455 
 100   0.0000       0.508454        13.8357 
 101   0.0000       0.518857        14.1188 
 102   0.0000       0.523204        14.2371 
 103   0.0000       0.526833        14.3359 
 104   0.0000       0.536663        14.6033 
 105   0.0000       0.547860        14.9080 
 106   0.0000       0.550291        14.9742 
 107   0.0000       0.554592        15.0912 
 108   0.0000       0.567981        15.4556 
 109   0.0000       0.575909        15.6713 
 110   0.0000       0.583670        15.8825 
 111   0.0000       0.591561        16.0972 
 112   0.0000       0.594891        16.1878 
 113   0.0000       0.595442        16.2028 
 114   0.0000       0.597939        16.2707 
 115   0.0000       0.604373        16.4458 
 116   0.0000       0.608358        16.5543 
 117   0.0000       0.611362        16.6360 
 118   0.0000       0.620898        16.8955 
 119   0.0000       0.622454        16.9378 
 120   0.0000       0.624186        16.9850 
 121   0.0000       0.628789        17.1102 
 122   0.0000       0.638544        17.3757 
 123   0.0000       0.639666        17.4062 
 124   0.0000       0.649360        17.6700 
 125   0.0000       0.656454        17.8630 
 126   0.0000       0.668309        18.1856 
 127   0.0000       0.674512        18.3544 
 128   0.0000       0.686055        18.6685 
 129   0.0000       0.694624        18.9017 
 130   0.0000       0.706113        19.2143 
 131   0.0000       0.716496        19.4968 
 132   0.0000       0.737365        20.0647 
 133   0.0000       0.758934        20.6517 
 134   0.0000       0.789560        21.4850 
 135   0.0000       0.800928        21.7944 
 136   0.0000       0.809404        22.0250 
 137   0.0000       0.811897        22.0928 
 138   0.0000       0.818842        22.2818 
 139   0.0000       0.835612        22.7381 
 140   0.0000       0.838909        22.8279 
 141   0.0000       0.844626        22.9835 
 142   0.0000       0.846211        23.0266 
 143   0.0000       0.851454        23.1692 
 144   0.0000       0.859407        23.3856 
 145   0.0000       0.865874        23.5616 
 146   0.0000       0.878651        23.9093 
 147   0.0000       0.882955        24.0264 
 148   0.0000       0.896159        24.3857 
 149   0.0000       0.909201        24.7406 
 150   0.0000       0.919759        25.0279 
 151   0.0000       0.924506        25.1571 
 152   0.0000       0.928273        25.2596 
 153   0.0000       0.947566        25.7846 
 154   0.0000       0.959612        26.1124 
 155   0.0000       0.965215        26.2648 
 156   0.0000       0.971068        26.4241 
 157   0.0000       0.977895        26.6099 
 158   0.0000       0.995528        27.0897 
 159   0.0000       0.998819        27.1793 
 160   0.0000       1.031178        28.0598 
 161   0.0000       1.044478        28.4217 
 162   0.0000       1.069932        29.1143 
 163   0.0000       1.084832        29.5198 
 164   0.0000       1.091853        29.7108 
 165   0.0000       1.119093        30.4521 
 166   0.0000       1.133341        30.8398 
 167   0.0000       1.140087        31.0234 
 168   0.0000       1.152837        31.3703 
 169   0.0000       1.169831        31.8327 
 170   0.0000       1.176343        32.0099 
 171   0.0000       1.190948        32.4073 
 172   0.0000       1.208384        32.8818 
 173   0.0000       1.216330        33.0980 
 174   0.0000       1.236624        33.6503 
 175   0.0000       1.275946        34.7203 
 176   0.0000       1.286247        35.0006 
 177   0.0000       1.303137        35.4602 
 178   0.0000       1.318551        35.8796 
 179   0.0000       1.343930        36.5702 
 180   0.0000       1.351438        36.7745 
 181   0.0000       1.359220        36.9863 
 182   0.0000       1.407548        38.3013 
 183   0.0000       1.411725        38.4150 
 184   0.0000       1.422417        38.7059 
 185   0.0000       1.431541        38.9542 
 186   0.0000       1.446750        39.3681 
 187   0.0000       1.451403        39.4947 
 188   0.0000       1.464050        39.8388 
 189   0.0000       1.467229        39.9253 
 190   0.0000       1.487372        40.4734 
 191   0.0000       1.497381        40.7458 
 192   0.0000       1.499274        40.7973 
 193   0.0000       1.502033        40.8724 
 194   0.0000       1.507018        41.0080 
 195   0.0000       1.519832        41.3567 
 196   0.0000       1.527217        41.5577 
 197   0.0000       1.563909        42.5561 
 198   0.0000       1.602538        43.6073 
 199   0.0000       1.613688        43.9107 
 200   0.0000       1.748883        47.5895 
 201   0.0000       1.776487        48.3407 
 202   0.0000       1.793833        48.8127 
 203   0.0000       1.796571        48.8872 
 204   0.0000       1.803505        49.0759 
 205   0.0000       1.819200        49.5029 
 206   0.0000       1.835970        49.9593 
 207   0.0000       1.840787        50.0904 
 208   0.0000       1.855111        50.4801 
 209   0.0000       1.877845        51.0988 
 210   0.0000       1.895467        51.5783 
 211   0.0000       1.908875        51.9431 
 212   0.0000       1.912066        52.0300 
 213   0.0000       1.924004        52.3548 
 214   0.0000       1.927065        52.4381 
 215   0.0000       1.944741        52.9191 
 216   0.0000       1.967653        53.5426 
 217   0.0000       1.986160        54.0462 
 218   0.0000       1.992159        54.2094 
 219   0.0000       2.005331        54.5678 
 220   0.0000       2.019151        54.9439 
 221   0.0000       2.041741        55.5586 
 222   0.0000       2.047676        55.7201 
 223   0.0000       2.059795        56.0499 
 224   0.0000       2.106473        57.3201 
 225   0.0000       2.115824        57.5745 
 226   0.0000       2.130298        57.9684 
 227   0.0000       2.150404        58.5155 
 228   0.0000       2.156328        58.6767 
 229   0.0000       2.165079        58.9148 
 230   0.0000       2.172350        59.1127 
 231   0.0000       2.187502        59.5250 
 232   0.0000       2.214785        60.2674 
 233   0.0000       2.225726        60.5651 
 234   0.0000       2.246297        61.1249 
 235   0.0000       2.250874        61.2494 
 236   0.0000       2.263211        61.5851 
 237   0.0000       2.267114        61.6913 
 238   0.0000       2.291958        62.3673 
 239   0.0000       2.301275        62.6209 
 240   0.0000       2.314130        62.9707 
 241   0.0000       2.320678        63.1489 
 242   0.0000       2.343349        63.7658 
 243   0.0000       2.371873        64.5419 
 244   0.0000       2.405610        65.4600 
 245   0.0000       2.422543        65.9207 
 246   0.0000       2.461616        66.9840 
 247   0.0000       2.507659        68.2369 
 248   0.0000       2.532800        68.9210 
 249   0.0000       2.540668        69.1351 
 250   0.0000       2.551257        69.4232 
 251   0.0000       2.566718        69.8439 
 252   0.0000       2.593689        70.5779 
 253   0.0000       2.606515        70.9269 
 254   0.0000       2.620248        71.3006 
 255   0.0000       2.651490        72.1507 
 256   0.0000       2.654625        72.2360 
 257   0.0000       2.672741        72.7290 
 258   0.0000       2.677535        72.8594 
 259   0.0000       2.706644        73.6515 
 260   0.0000       2.721869        74.0658 
 261   0.0000       2.726851        74.2014 
 262   0.0000       2.754118        74.9434 
 263   0.0000       2.759513        75.0902 
 264   0.0000       2.772556        75.4451 
 265   0.0000       2.778355        75.6029 
 266   0.0000       2.827895        76.9509 
 267   0.0000       2.857196        77.7483 
 268   0.0000       2.887814        78.5814 
 269   0.0000       2.922324        79.5205 
 270   0.0000       2.945086        80.1399 
 271   0.0000       3.006403        81.8084 
 272   0.0000       3.115783        84.7848 
 273   0.0000       3.186630        86.7126 
 274   0.0000       3.227066        87.8129 
 275   0.0000       3.283380        89.3453 
 276   0.0000       3.426053        93.2277 
 277   0.0000       3.472128        94.4814 

                    ********************************
                    * MULLIKEN POPULATION ANALYSIS *
                    ********************************

-----------------------
MULLIKEN ATOMIC CHARGES
-----------------------
   0 C :   -0.140667
   1 C :   -0.147326
   2 C :   -0.177821
   3 C :    0.201260
   4 C :    0.318695
   5 C :   -0.172700
   6 C :    0.419085
   7 C :    0.300921
   8 C :   -0.294419
   9 C :    0.176860
  10 C :   -0.214448
  11 C :   -0.129585
  12 C :   -0.129835
  13 C :   -0.129410
  14 C :   -0.187885
  15 H :    0.150613
  16 H :    0.127224
  17 H :    0.125836
  18 H :    0.126464
  19 H :    0.119312
  20 H :    0.106213
  21 N :   -0.782237
  22 H :    0.355096
  23 H :    0.326403
  24 N :   -0.498022
  25 N :   -0.704663
  26 H :    0.335809
  27 H :    0.126052
  28 H :    0.127350
  29 H :    0.128279
  30 H :    0.137549
Sum of atomic charges:   -0.0000000

--------------------------------
MULLIKEN REDUCED ORBITAL CHARGES
--------------------------------
  0 C s       :     3.192947  s :     3.192947
      pz      :     1.008166  p :     2.911764
      px      :     0.977349
      py      :     0.926248
      dz2     :     0.004022  d :     0.035957
      dxz     :     0.003322
      dyz     :     0.005728
      dx2y2   :     0.012552
      dxy     :     0.010333
  1 C s       :     3.201228  s :     3.201228
      pz      :     0.997916  p :     2.909812
      px      :     0.962514
      py      :     0.949382
      dz2     :     0.004019  d :     0.036287
      dxz     :     0.004946
      dyz     :     0.004517
      dx2y2   :     0.009292
      dxy     :     0.013512
  2 C s       :     3.197879  s :     3.197879
      pz      :     0.997627  p :     2.944102
      px      :     0.985338
      py      :     0.961137
      dz2     :     0.003091  d :     0.035841
      dxz     :     0.006619
      dyz     :     0.003896
      dx2y2   :     0.012867
      dxy     :     0.009367
  3 C s       :     3.074657  s :     3.074657
      pz      :     0.997801  p :     2.665856
      px      :     0.793924
      py      :     0.874131
      dz2     :     0.004773  d :     0.058227
      dxz     :     0.011023
      dyz     :     0.006262
      dx2y2   :     0.020182
      dxy     :     0.015987
  4 C s       :     3.039442  s :     3.039442
      pz      :     1.002844  p :     2.584894
      px      :     0.679443
      py      :     0.902606
      dz2     :     0.005059  d :     0.056970
      dxz     :     0.012585
      dyz     :     0.006133
      dx2y2   :     0.020367
      dxy     :     0.012825
  5 C s       :     3.162260  s :     3.162260
      pz      :     1.041154  p :     2.974351
      px      :     0.974723
      py      :     0.958474
      dz2     :     0.003109  d :     0.036089
      dxz     :     0.006812
      dyz     :     0.003793
      dx2y2   :     0.011136
      dxy     :     0.011240
  6 C s       :     2.997293  s :     2.997293
      pz      :     0.947070  p :     2.506264
      px      :     0.823794
      py      :     0.735399
      dz2     :     0.007398  d :     0.077359
      dxz     :     0.010888
      dyz     :     0.013555
      dx2y2   :     0.026274
      dxy     :     0.019244
  7 C s       :     3.069845  s :     3.069845
      pz      :     0.966239  p :     2.570288
      px      :     0.909561
      py      :     0.694488
      dz2     :     0.004092  d :     0.058946
      dxz     :     0.005564
      dyz     :     0.015759
      dx2y2   :     0.019801
      dxy     :     0.013730
  8 C s       :     3.191232  s :     3.191232
      pz      :     1.135564  p :     3.069173
      px      :     0.976606
      py      :     0.957003
      dz2     :     0.003431  d :     0.034014
      dxz     :     0.006014
      dyz     :     0.002362
      dx2y2   :     0.011222
      dxy     :     0.010984
  9 C s       :     3.124410  s :     3.124410
      pz      :     0.926283  p :     2.656769
      px      :     0.882966
      py      :     0.847521
      dz2     :     0.004618  d :     0.041961
      dxz     :     0.008617
      dyz     :     0.005435
      dx2y2   :     0.011883
      dxy     :     0.011408
 10 C s       :     3.202987  s :     3.202987
      pz      :     0.988754  p :     2.975881
      px      :     0.967259
      py      :     1.019868
      dz2     :     0.003101  d :     0.035581
      dxz     :     0.006759
      dyz     :     0.004733
      dx2y2   :     0.008962
      dxy     :     0.012026
 11 C s       :     3.190620  s :     3.190620
      pz      :     0.987545  p :     2.902444
      px      :     0.948540
      py      :     0.966359
      dz2     :     0.003248  d :     0.036520
      dxz     :     0.006906
      dyz     :     0.004693
      dx2y2   :     0.009994
      dxy     :     0.011679
 12 C s       :     3.184537  s :     3.184537
      pz      :     0.990419  p :     2.909312
      px      :     0.972441
      py      :     0.946451
      dz2     :     0.004949  d :     0.035987
      dxz     :     0.003417
      dyz     :     0.005582
      dx2y2   :     0.013291
      dxy     :     0.008748
 13 C s       :     3.189144  s :     3.189144
      pz      :     0.984907  p :     2.903758
      px      :     0.955180
      py      :     0.963671
      dz2     :     0.003334  d :     0.036507
      dxz     :     0.006657
      dyz     :     0.004649
      dx2y2   :     0.009551
      dxy     :     0.012316
 14 C s       :     3.202379  s :     3.202379
      pz      :     1.003652  p :     2.949818
      px      :     0.964982
      py      :     0.981184
      dz2     :     0.003121  d :     0.035688
      dxz     :     0.006652
      dyz     :     0.004363
      dx2y2   :     0.009562
      dxy     :     0.011990
 15 H s       :     0.849387  s :     0.849387
 16 H s       :     0.872776  s :     0.872776
 17 H s       :     0.874164  s :     0.874164
 18 H s       :     0.873536  s :     0.873536
 19 H s       :     0.880688  s :     0.880688
 20 H s       :     0.893787  s :     0.893787
 21 N s       :     3.649526  s :     3.649526
      pz      :     1.662754  p :     4.101757
      px      :     1.243579
      py      :     1.195424
      dz2     :     0.002596  d :     0.030953
      dxz     :     0.007476
      dyz     :     0.005697
      dx2y2   :     0.006860
      dxy     :     0.008324
 22 H s       :     0.644904  s :     0.644904
 23 H s       :     0.673597  s :     0.673597
 24 N s       :     3.705497  s :     3.705497
      pz      :     1.249597  p :     3.751913
      px      :     1.027319
      py      :     1.474996
      dz2     :     0.005141  d :     0.040613
      dxz     :     0.006899
      dyz     :     0.007269
      dx2y2   :     0.006264
      dxy     :     0.015039
 25 N s       :     3.673165  s :     3.673165
      pz      :     1.558645  p :     3.994843
      px      :     1.200985
      py      :     1.235213
      dz2     :     0.003141  d :     0.036655
      dxz     :     0.007455
      dyz     :     0.005436
      dx2y2   :     0.008534
      dxy     :     0.012089
 26 H s       :     0.664191  s :     0.664191
 27 H s       :     0.873948  s :     0.873948
 28 H s       :     0.872650  s :     0.872650
 29 H s       :     0.871721  s :     0.871721
 30 H s       :     0.862451  s :     0.862451


                     *******************************
                     * LOEWDIN POPULATION ANALYSIS *
                     *******************************

----------------------
LOEWDIN ATOMIC CHARGES
----------------------
   0 C :   -0.142179
   1 C :   -0.131590
   2 C :   -0.128795
   3 C :   -0.003628
   4 C :    0.010503
   5 C :   -0.159363
   6 C :    0.051130
   7 C :    0.014348
   8 C :   -0.202487
   9 C :   -0.017581
  10 C :   -0.145825
  11 C :   -0.127442
  12 C :   -0.137271
  13 C :   -0.128145
  14 C :   -0.131120
  15 H :    0.138305
  16 H :    0.130375
  17 H :    0.130036
  18 H :    0.130331
  19 H :    0.126732
  20 H :    0.125054
  21 N :   -0.385131
  22 H :    0.257447
  23 H :    0.245852
  24 N :   -0.183474
  25 N :   -0.134707
  26 H :    0.264039
  27 H :    0.131336
  28 H :    0.131656
  29 H :    0.132256
  30 H :    0.139340

-------------------------------
LOEWDIN REDUCED ORBITAL CHARGES
-------------------------------
  0 C s       :     2.915782  s :     2.915782
      pz      :     1.013225  p :     3.141911
      px      :     1.070875
      py      :     1.057811
      dz2     :     0.007475  d :     0.084486
      dxz     :     0.006559
      dyz     :     0.013270
      dx2y2   :     0.030677
      dxy     :     0.026505
  1 C s       :     2.916793  s :     2.916793
      pz      :     1.002898  p :     3.129868
      px      :     1.064620
      py      :     1.062350
      dz2     :     0.007477  d :     0.084928
      dxz     :     0.010737
      dyz     :     0.009871
      dx2y2   :     0.024565
      dxy     :     0.032278
  2 C s       :     2.916458  s :     2.916458
      pz      :     0.999547  p :     3.128462
      px      :     1.058545
      py      :     1.070371
      dz2     :     0.005926  d :     0.083875
      dxz     :     0.014807
      dyz     :     0.006683
      dx2y2   :     0.030979
      dxy     :     0.025480
  3 C s       :     2.851536  s :     2.851536
      pz      :     0.999075  p :     3.010815
      px      :     1.007728
      py      :     1.004013
      dz2     :     0.010138  d :     0.141277
      dxz     :     0.022381
      dyz     :     0.014168
      dx2y2   :     0.053048
      dxy     :     0.041541
  4 C s       :     2.849219  s :     2.849219
      pz      :     1.008109  p :     3.000836
      px      :     0.933972
      py      :     1.058754
      dz2     :     0.011306  d :     0.139442
      dxz     :     0.027347
      dyz     :     0.013360
      dx2y2   :     0.054430
      dxy     :     0.032999
  5 C s       :     2.909494  s :     2.909494
      pz      :     1.041383  p :     3.164791
      px      :     1.062147
      py      :     1.061260
      dz2     :     0.006024  d :     0.085078
      dxz     :     0.015251
      dyz     :     0.006580
      dx2y2   :     0.028438
      dxy     :     0.028785
  6 C s       :     2.844447  s :     2.844447
      pz      :     0.961593  p :     2.922527
      px      :     1.018071
      py      :     0.942863
      dz2     :     0.015531  d :     0.181896
      dxz     :     0.021377
      dyz     :     0.030577
      dx2y2   :     0.064477
      dxy     :     0.049935
  7 C s       :     2.855732  s :     2.855732
      pz      :     0.961987  p :     2.987389
      px      :     1.032912
      py      :     0.992490
      dz2     :     0.008886  d :     0.142531
      dxz     :     0.011600
      dyz     :     0.033520
      dx2y2   :     0.051763
      dxy     :     0.036762
  8 C s       :     2.908450  s :     2.908450
      pz      :     1.113848  p :     3.213146
      px      :     1.036231
      py      :     1.063067
      dz2     :     0.006278  d :     0.080891
      dxz     :     0.012244
      dyz     :     0.004318
      dx2y2   :     0.029102
      dxy     :     0.028949
  9 C s       :     2.867580  s :     2.867580
      pz      :     0.970183  p :     3.044640
      px      :     1.028543
      py      :     1.045914
      dz2     :     0.009556  d :     0.105362
      dxz     :     0.019388
      dyz     :     0.013382
      dx2y2   :     0.032063
      dxy     :     0.030973
 10 C s       :     2.918832  s :     2.918832
      pz      :     1.012469  p :     3.144284
      px      :     1.069414
      py      :     1.062401
      dz2     :     0.006423  d :     0.082708
      dxz     :     0.014890
      dyz     :     0.008806
      dx2y2   :     0.023806
      dxy     :     0.028784
 11 C s       :     2.917424  s :     2.917424
      pz      :     0.996086  p :     3.123838
      px      :     1.073411
      py      :     1.054341
      dz2     :     0.006692  d :     0.086181
      dxz     :     0.015643
      dyz     :     0.008866
      dx2y2   :     0.025890
      dxy     :     0.029090
 12 C s       :     2.917749  s :     2.917749
      pz      :     1.007690  p :     3.134793
      px      :     1.070641
      py      :     1.056462
      dz2     :     0.009411  d :     0.084729
      dxz     :     0.007441
      dyz     :     0.013985
      dx2y2   :     0.030785
      dxy     :     0.023105
 13 C s       :     2.917024  s :     2.917024
      pz      :     0.995521  p :     3.125045
      px      :     1.073933
      py      :     1.055591
      dz2     :     0.006763  d :     0.086076
      dxz     :     0.015001
      dyz     :     0.009143
      dx2y2   :     0.025080
      dxy     :     0.030089
 14 C s       :     2.918062  s :     2.918062
      pz      :     1.009267  p :     3.129869
      px      :     1.067519
      py      :     1.053083
      dz2     :     0.006283  d :     0.083189
      dxz     :     0.014783
      dyz     :     0.007915
      dx2y2   :     0.025073
      dxy     :     0.029135
 15 H s       :     0.861695  s :     0.861695
 16 H s       :     0.869625  s :     0.869625
 17 H s       :     0.869964  s :     0.869964
 18 H s       :     0.869669  s :     0.869669
 19 H s       :     0.873268  s :     0.873268
 20 H s       :     0.874946  s :     0.874946
 21 N s       :     3.206026  s :     3.206026
      pz      :     1.655613  p :     4.117571
      px      :     1.247354
      py      :     1.214604
      dz2     :     0.004014  d :     0.061534
      dxz     :     0.010906
      dyz     :     0.010352
      dx2y2   :     0.016862
      dxy     :     0.019399
 22 H s       :     0.742553  s :     0.742553
 23 H s       :     0.754148  s :     0.754148
 24 N s       :     3.250971  s :     3.250971
      pz      :     1.243249  p :     3.847626
      px      :     1.110540
      py      :     1.493837
      dz2     :     0.008684  d :     0.084877
      dxz     :     0.016574
      dyz     :     0.009100
      dx2y2   :     0.014568
      dxy     :     0.035950
 25 N s       :     3.107533  s :     3.107533
      pz      :     1.519572  p :     3.940242
      px      :     1.188019
      py      :     1.232650
      dz2     :     0.005487  d :     0.086932
      dxz     :     0.016173
      dyz     :     0.010474
      dx2y2   :     0.025222
      dxy     :     0.029577
 26 H s       :     0.735961  s :     0.735961
 27 H s       :     0.868664  s :     0.868664
 28 H s       :     0.868344  s :     0.868344
 29 H s       :     0.867744  s :     0.867744
 30 H s       :     0.860660  s :     0.860660


                      *****************************
                      * MAYER POPULATION ANALYSIS *
                      *****************************

  NA   - Mulliken gross atomic population
  ZA   - Total nuclear charge
  QA   - Mulliken gross atomic charge
  VA   - Mayer's total valence
  BVA  - Mayer's bonded valence
  FA   - Mayer's free valence

  ATOM       NA         ZA         QA         VA         BVA        FA
  0 C      6.1407     6.0000    -0.1407     3.9279     3.9279     0.0000
  1 C      6.1473     6.0000    -0.1473     3.9542     3.9542    -0.0000
  2 C      6.1778     6.0000    -0.1778     3.9060     3.9060    -0.0000
  3 C      5.7987     6.0000     0.2013     4.0407     4.0407    -0.0000
  4 C      5.6813     6.0000     0.3187     3.8010     3.8010    -0.0000
  5 C      6.1727     6.0000    -0.1727     3.8818     3.8818     0.0000
  6 C      5.5809     6.0000     0.4191     3.8089     3.8089    -0.0000
  7 C      5.6991     6.0000     0.3009     3.8435     3.8435     0.0000
  8 C      6.2944     6.0000    -0.2944     3.8721     3.8721     0.0000
  9 C      5.8231     6.0000     0.1769     4.0077     4.0077     0.0000
 10 C      6.2144     6.0000    -0.2144     3.8976     3.8976     0.0000
 11 C      6.1296     6.0000    -0.1296     3.9449     3.9449     0.0000
 12 C      6.1298     6.0000    -0.1298     3.9458     3.9458     0.0000
 13 C      6.1294     6.0000    -0.1294     3.9454     3.9454     0.0000
 14 C      6.1879     6.0000    -0.1879     3.9313     3.9313     0.0000
 15 H      0.8494     1.0000     0.1506     0.9417     0.9417     0.0000
 16 H      0.8728     1.0000     0.1272     0.9380     0.9380     0.0000
 17 H      0.8742     1.0000     0.1258     0.9378     0.9378    -0.0000
 18 H      0.8735     1.0000     0.1265     0.9377     0.9377     0.0000
 19 H      0.8807     1.0000     0.1193     0.9401     0.9401     0.0000
 20 H      0.8938     1.0000     0.1062     0.9469     0.9469    -0.0000
 21 N      7.7822     7.0000    -0.7822     2.8642     2.8642    -0.0000
 22 H      0.6449     1.0000     0.3551     0.8620     0.8620    -0.0000
 23 H      0.6736     1.0000     0.3264     0.8623     0.8623     0.0000
 24 N      7.4980     7.0000    -0.4980     2.9469     2.9469    -0.0000
 25 N      7.7047     7.0000    -0.7047     3.0180     3.0180     0.0000
 26 H      0.6642     1.0000     0.3358     0.8675     0.8675    -0.0000
 27 H      0.8739     1.0000     0.1261     0.9394     0.9394    -0.0000
 28 H      0.8727     1.0000     0.1273     0.9392     0.9392    -0.0000
 29 H      0.8717     1.0000     0.1283     0.9368     0.9368     0.0000
 30 H      0.8625     1.0000     0.1375     0.9384     0.9384     0.0000

  Mayer bond orders larger than 0.1
B(  0-C ,  1-C ) :   1.3905 B(  0-C ,  2-C ) :   1.4781 B(  0-C , 27-H ) :   0.9316 
B(  1-C ,  5-C ) :   1.4670 B(  1-C , 28-H ) :   0.9307 B(  2-C ,  3-C ) :   1.3627 
B(  2-C , 30-H ) :   0.9210 B(  3-C ,  4-C ) :   1.2935 B(  3-C , 24-N ) :   1.2021 
B(  4-C ,  5-C ) :   1.3721 B(  4-C , 25-N ) :   0.9576 B(  5-C , 29-H ) :   0.9238 
B(  6-C ,  7-C ) :   1.0522 B(  6-C , 24-N ) :   1.5182 B(  6-C , 25-N ) :   1.0618 
B(  7-C ,  8-C ) :   1.6109 B(  7-C , 21-N ) :   1.0864 B(  8-C ,  9-C ) :   1.1085 
B(  8-C , 20-H ) :   0.9152 B(  9-C , 10-C ) :   1.3822 B(  9-C , 14-C ) :   1.3687 
B( 10-C , 11-C ) :   1.4452 B( 10-C , 15-H ) :   0.9103 B( 11-C , 12-C ) :   1.4462 
B( 11-C , 16-H ) :   0.9303 B( 12-C , 13-C ) :   1.4350 B( 12-C , 17-H ) :   0.9306 
B( 13-C , 14-C ) :   1.4613 B( 13-C , 18-H ) :   0.9301 B( 14-C , 19-H ) :   0.9256 
B( 21-N , 22-H ) :   0.7963 B( 21-N , 23-H ) :   0.8283 B( 25-N , 26-H ) :   0.8262 


-------
TIMINGS
-------

Total SCF time: 0 days 0 hours 0 min 19 sec 

Total time                  ....      19.212 sec
Sum of individual times     ....      18.956 sec  ( 98.7%)

Fock matrix formation       ....      14.179 sec  ( 73.8%)
  XC integration            ....       1.830 sec  ( 12.9% of F)
    Basis function eval.    ....       0.596 sec  ( 32.5% of XC)
    Density eval.           ....       0.447 sec  ( 24.4% of XC)
    XC-Functional eval.     ....       0.114 sec  (  6.2% of XC)
    XC-Potential eval.      ....       0.380 sec  ( 20.8% of XC)
Diagonalization             ....       0.058 sec  (  0.3%)
Density matrix formation    ....       0.075 sec  (  0.4%)
Population analysis         ....       0.088 sec  (  0.5%)
Initial guess               ....       0.057 sec  (  0.3%)
Orbital Transformation      ....       0.000 sec  (  0.0%)
Orbital Orthonormalization  ....       0.045 sec  (  0.2%)
DIIS solution               ....       0.015 sec  (  0.1%)
SOSCF solution              ....       0.120 sec  (  0.6%)
Grid generation             ....       4.365 sec  ( 22.7%)


           ************************************************************
           *        Program running with 8 parallel MPI-processes     *
           *              working on a common directory               *
           ************************************************************
------------------------------------------------------------------------------
                        ORCA TD-DFT/TDA CALCULATION
------------------------------------------------------------------------------

Input orbitals are from        ... tddft.gbw
CI-vector output               ... tddft.cis
Tamm-Dancoff approximation     ... operative
CIS-Integral strategy          ... AO-integrals
Integral handling              ... AO integral Direct
Max. core memory used          ... 12000 MB
Reference state                ... RHF
Generation of triplets         ... on
Number of operators            ... 1
Orbital ranges used for CIS calculation:
 Operator 0:  Orbitals  18... 61  to  62...277
XAS localization array:
 Operator 0:  Orbitals  -1... -1
-------------------
XC-INTEGRATION GRID
-------------------

General Integration Accuracy     IntAcc      ...  3.670
Radial Grid Type                 RadialGrid  ... Gauss-Chebyshev
Angular Grid (max. acc.)         AngularGrid ... Lebedev-50
Angular grid pruning method      GridPruning ... 3 (G Style)
Weight generation scheme         WeightScheme... Becke
Basis function cutoff            BFCut       ...    1.0000e-11
Integration weight cutoff        WCut        ...    1.0000e-14
Grids for H and He will be reduced by one unit

# of grid points (after initial pruning)     ...  18376 (   0.0 sec)
# of grid points (after weights+screening)   ...  16829 (   0.1 sec)
nearest neighbour list constructed           ...    0.0 sec
Grid point re-assignment to atoms done       ...    0.0 sec
Grid point division into batches done        ...    0.0 sec
Reduced shell lists constructed in    0.1 sec

Total number of grid points                  ...    16829
Total number of batches                      ...      277
Average number of points per batch           ...       60
Average number of grid points per atom       ...      543
Average number of shells per batch           ...    65.67 (49.00%)
Average number of basis functions per batch  ...   139.89 (50.32%)
Average number of large shells per batch     ...    49.25 (75.00%)
Average number of large basis fcns per batch ...   108.42 (77.50%)
Maximum spatial batch extension              ...   3.59,  6.69, 21.66 au
Average spatial batch extension              ...   0.27,  0.34,  0.62 au


---------------
TD-DFT XC SETUP
---------------

DFT calculation                         ... on
Name of the grid file                   ... tddft.grid_cis.tmp
Exchange functional (SCF)               ... B88
Exchange functional (TD-DFT)            ... B88
   X-Alpha parameter    XAlpha (SCF)    ...  0.666667
   X-Alpha parameter    XAlpha (TD-DFT) ...  0.666667
   Becke's b parameter  XBeta (SCF)     ...  0.004200
   Becke's b parameter  XBeta (TD-DFT)  ...  0.004200
Correlation functional (SCF)            ... LYP
Correlation functional (TD-DFT)         ... LYP
 LDA part of GGA corr.  LDAOpt (SCF)    ... VWN-5
 LDA part of GGA corr.  LDAOpt (TD-DFT) ... VWN-5
Hybrid DFT                              ... on
   Exchange mixing (SCF)                ...  0.200
   Exchange mixing (TD-DFT)             ...  0.200
   GGA exch. scaling(SCF)               ...  0.720
   GGA exch. scaling (TD-DFT)           ...  0.720
   GGA corr. scaling (SCF)              ...  0.810
   GGA corr. scaling (TD-DFT)           ...  0.810

Building densities             ... done
Calculating rho(r) on the grid ... done
Building xc-kernel on the grid ... done
                    *** TD-DFT CALCULATION INITIALIZED ***


------------------------
DAVIDSON-DIAGONALIZATION
------------------------

Dimension of the eigenvalue problem            ...   9504
Number of roots to be determined               ...     20
Maximum size of the expansion space            ...    200
Convergence tolerance for the residual         ...    2.500e-07
Convergence tolerance for the energies         ...    2.500e-07
Orthogonality tolerance                        ...    1.000e-14
Level Shift                                    ...    0.000e+00
Constructing the preconditioner                ... o.k.
Building the initial guess                     ... o.k.
Number of trial vectors determined             ...    200


                       ****Iteration    0****

   Memory handling for direct AO based CIS:
   Memory per vector needed      ...     2 MB
   Memory needed                 ...   141 MB
   Memory available              ... 12000 MB
   Number of vectors per batch   ...  5083
   Number of batches             ...     1
   Time for densities:     0.652
   Using LibInt in JK Direct
   Time for J+K (Direct):   723.678
   Time for XC-Integration:     5.295
   Time for Sigma-Completion:     0.426
   Size of expansion space: 60
   Lowest Energy          :     0.150930850961
   Maximum Energy change  :     0.252057168367 (vector 19)
   Maximum residual norm  :     0.009442803208

                       ****Iteration    1****
   Time for densities:     0.209
   Using LibInt in JK Direct
   Time for J+K (Direct):   122.047
   Time for XC-Integration:     1.974
   Time for Sigma-Completion:     0.154
   Size of expansion space: 80
   Lowest Energy          :     0.140328126400
   Maximum Energy change  :     0.010602724562 (vector 0)
   Maximum residual norm  :     0.000620255806

                       ****Iteration    2****
   Time for densities:     0.210
   Using LibInt in JK Direct
   Time for J+K (Direct):   126.073
   Time for XC-Integration:     1.957
   Time for Sigma-Completion:     0.151
   Size of expansion space: 100
   Lowest Energy          :     0.140080241280
   Maximum Energy change  :     0.001261553283 (vector 17)
   Maximum residual norm  :     0.000118734807

                       ****Iteration    3****
   Time for densities:     0.210
   Using LibInt in JK Direct
   Time for J+K (Direct):   125.025
   Time for XC-Integration:     1.938
   Time for Sigma-Completion:     0.153
   Size of expansion space: 120
   Lowest Energy          :     0.140072483030
   Maximum Energy change  :     0.000325922379 (vector 18)
   Maximum residual norm  :     0.000013951047

                       ****Iteration    4****
   Time for densities:     0.212
   Using LibInt in JK Direct
   Time for J+K (Direct):   122.136
   Time for XC-Integration:     1.912
   Time for Sigma-Completion:     0.153
   Size of expansion space: 140
   Lowest Energy          :     0.140072363608
   Maximum Energy change  :     0.000023077704 (vector 18)
   Maximum residual norm  :     0.000000650503

                       ****Iteration    5****
   Time for densities:     0.213
   Using LibInt in JK Direct
   Time for J+K (Direct):   123.059
   Time for XC-Integration:     2.019
   Time for Sigma-Completion:     0.152
   Size of expansion space: 160
   Lowest Energy          :     0.140072361782
   Maximum Energy change  :     0.000001057905 (vector 18)
   Maximum residual norm  :     0.000000019113

      *** CONVERGENCE OF RESIDUAL NORM REACHED ***

Storing the converged CI vectors               ... tddft.cis1

                 *** DAVIDSON DONE ***

Total time for solving the CIS problem:  1363.276sec

------------------------------------
TD-DFT/TDA EXCITED STATES (SINGLETS)
------------------------------------

the weight of the individual excitations are printed if larger than 0.01

STATE  1:  E=   0.140072 au      3.812 eV    30742.3 cm**-1
    61a ->  62a  :     0.943770 (c=  0.97147845)
    61a ->  64a  :     0.015979 (c= -0.12640700)

STATE  2:  E=   0.162738 au      4.428 eV    35716.9 cm**-1
    58a ->  62a  :     0.254110 (c= -0.50409365)
    58a ->  64a  :     0.018434 (c= -0.13577316)
    61a ->  63a  :     0.696756 (c= -0.83471895)
    61a ->  64a  :     0.017065 (c=  0.13063201)

STATE  3:  E=   0.164811 au      4.485 eV    36171.7 cm**-1
    59a ->  62a  :     0.064967 (c= -0.25488602)
    59a ->  65a  :     0.010804 (c= -0.10394072)
    60a ->  62a  :     0.811729 (c=  0.90095983)
    61a ->  62a  :     0.010902 (c= -0.10441330)
    61a ->  64a  :     0.024794 (c= -0.15746039)
    61a ->  65a  :     0.035456 (c=  0.18829880)

STATE  4:  E=   0.168591 au      4.588 eV    37001.4 cm**-1
    59a ->  62a  :     0.645553 (c=  0.80346304)
    60a ->  62a  :     0.027452 (c=  0.16568741)
    60a ->  65a  :     0.015203 (c=  0.12330246)
    61a ->  63a  :     0.010319 (c= -0.10158411)
    61a ->  64a  :     0.269277 (c= -0.51891886)
    61a ->  65a  :     0.013920 (c= -0.11798478)

STATE  5:  E=   0.182118 au      4.956 eV    39970.3 cm**-1
    57a ->  62a  :     0.074626 (c=  0.27317765)
    58a ->  62a  :     0.015518 (c= -0.12457186)
    59a ->  62a  :     0.139815 (c=  0.37391833)
    60a ->  62a  :     0.080487 (c=  0.28370317)
    60a ->  65a  :     0.079570 (c=  0.28208144)
    61a ->  63a  :     0.027819 (c=  0.16679021)
    61a ->  64a  :     0.508786 (c=  0.71329242)
    61a ->  65a  :     0.010560 (c= -0.10276257)

STATE  6:  E=   0.187524 au      5.103 eV    41156.8 cm**-1
    57a ->  63a  :     0.059140 (c= -0.24318704)
    58a ->  62a  :     0.656968 (c=  0.81053575)
    61a ->  63a  :     0.199216 (c= -0.44633576)
    61a ->  64a  :     0.031724 (c=  0.17811169)

STATE  7:  E=   0.192366 au      5.235 eV    42219.5 cm**-1
    56a ->  62a  :     0.024789 (c= -0.15744610)
    57a ->  62a  :     0.142610 (c= -0.37763704)
    59a ->  62a  :     0.019150 (c= -0.13838415)
    59a ->  65a  :     0.010927 (c= -0.10453143)
    60a ->  62a  :     0.010519 (c=  0.10256316)
    60a ->  64a  :     0.024890 (c=  0.15776683)
    61a ->  65a  :     0.705984 (c= -0.84022838)
    61a ->  66a  :     0.036508 (c=  0.19107012)

STATE  8:  E=   0.194696 au      5.298 eV    42730.9 cm**-1
    56a ->  62a  :     0.910014 (c= -0.95394658)
    61a ->  65a  :     0.041212 (c=  0.20300856)

STATE  9:  E=   0.202575 au      5.512 eV    44460.0 cm**-1
    56a ->  62a  :     0.021721 (c=  0.14738008)
    57a ->  62a  :     0.403109 (c= -0.63490860)
    60a ->  64a  :     0.016603 (c= -0.12885076)
    60a ->  65a  :     0.055809 (c=  0.23623958)
    61a ->  64a  :     0.028162 (c=  0.16781407)
    61a ->  65a  :     0.125139 (c=  0.35374947)
    61a ->  66a  :     0.297753 (c=  0.54566703)

STATE 10:  E=   0.211392 au      5.752 eV    46395.1 cm**-1
    57a ->  62a  :     0.010092 (c= -0.10045964)
    59a ->  62a  :     0.030928 (c=  0.17586363)
    59a ->  63a  :     0.039875 (c=  0.19968705)
    59a ->  64a  :     0.633248 (c=  0.79576851)
    60a ->  65a  :     0.198481 (c= -0.44551186)
    61a ->  64a  :     0.023697 (c=  0.15393765)
    61a ->  66a  :     0.016183 (c=  0.12721110)

STATE 11:  E=   0.214234 au      5.830 eV    47018.9 cm**-1
    59a ->  63a  :     0.048675 (c= -0.22062513)
    60a ->  63a  :     0.927214 (c= -0.96291970)

STATE 12:  E=   0.215394 au      5.861 eV    47273.6 cm**-1
    55a ->  62a  :     0.075851 (c= -0.27540989)
    57a ->  62a  :     0.177044 (c= -0.42076594)
    57a ->  64a  :     0.014507 (c=  0.12044661)
    58a ->  63a  :     0.030312 (c= -0.17410438)
    59a ->  65a  :     0.025365 (c=  0.15926437)
    60a ->  64a  :     0.280092 (c=  0.52923753)
    61a ->  65a  :     0.014668 (c=  0.12111150)
    61a ->  66a  :     0.271799 (c= -0.52134341)
    61a ->  67a  :     0.046448 (c=  0.21551718)

STATE 13:  E=   0.219301 au      5.967 eV    48130.9 cm**-1
    57a ->  62a  :     0.031746 (c=  0.17817311)
    58a ->  63a  :     0.010191 (c=  0.10095073)
    58a ->  64a  :     0.015379 (c=  0.12401299)
    59a ->  63a  :     0.473320 (c=  0.68798225)
    59a ->  64a  :     0.016960 (c= -0.13022877)
    59a ->  65a  :     0.051281 (c=  0.22645307)
    60a ->  63a  :     0.015951 (c= -0.12629749)
    60a ->  64a  :     0.218094 (c=  0.46700534)
    61a ->  66a  :     0.093672 (c=  0.30605924)
    61a ->  67a  :     0.023683 (c= -0.15389410)

STATE 14:  E=   0.219806 au      5.981 eV    48241.9 cm**-1
    57a ->  62a  :     0.036862 (c= -0.19199449)
    58a ->  64a  :     0.036581 (c=  0.19126087)
    59a ->  63a  :     0.351883 (c=  0.59319758)
    59a ->  64a  :     0.034923 (c= -0.18687830)
    59a ->  65a  :     0.074770 (c= -0.27344175)
    60a ->  63a  :     0.035651 (c= -0.18881419)
    60a ->  64a  :     0.216524 (c= -0.46532113)
    61a ->  66a  :     0.117400 (c= -0.34263708)
    61a ->  67a  :     0.035263 (c=  0.18778470)

STATE 15:  E=   0.227359 au      6.187 eV    49899.6 cm**-1
    57a ->  63a  :     0.356609 (c=  0.59716709)
    58a ->  62a  :     0.010503 (c=  0.10248309)
    58a ->  63a  :     0.026118 (c= -0.16160921)
    58a ->  64a  :     0.473092 (c= -0.68781665)
    58a ->  65a  :     0.018509 (c= -0.13604673)
    58a ->  66a  :     0.028995 (c=  0.17027895)
    59a ->  63a  :     0.049779 (c=  0.22311185)

STATE 16:  E=   0.230470 au      6.271 eV    50582.4 cm**-1
    55a ->  62a  :     0.034248 (c= -0.18506160)
    57a ->  62a  :     0.015967 (c= -0.12636095)
    58a ->  63a  :     0.023149 (c= -0.15214849)
    61a ->  66a  :     0.028813 (c= -0.16974515)
    61a ->  67a  :     0.823308 (c= -0.90736329)

STATE 17:  E=   0.236769 au      6.443 eV    51964.7 cm**-1
    55a ->  62a  :     0.556661 (c= -0.74609722)
    58a ->  63a  :     0.020420 (c=  0.14289943)
    60a ->  64a  :     0.035072 (c= -0.18727619)
    60a ->  66a  :     0.300491 (c=  0.54817082)
    61a ->  66a  :     0.018204 (c=  0.13492192)
    61a ->  67a  :     0.021425 (c=  0.14637436)

STATE 18:  E=   0.245955 au      6.693 eV    53980.9 cm**-1
    54a ->  62a  :     0.152294 (c=  0.39024810)
    55a ->  62a  :     0.027654 (c=  0.16629600)
    55a ->  64a  :     0.010169 (c=  0.10083987)
    57a ->  64a  :     0.030905 (c= -0.17579742)
    58a ->  63a  :     0.071205 (c= -0.26684284)
    59a ->  64a  :     0.124216 (c= -0.35244335)
    59a ->  65a  :     0.029315 (c= -0.17121737)
    59a ->  66a  :     0.216980 (c=  0.46581071)
    60a ->  65a  :     0.203462 (c= -0.45106805)
    60a ->  66a  :     0.028640 (c=  0.16923490)
    61a ->  68a  :     0.012428 (c= -0.11148253)

STATE 19:  E=   0.248946 au      6.774 eV    54637.4 cm**-1
    54a ->  62a  :     0.016426 (c=  0.12816309)
    56a ->  63a  :     0.019958 (c= -0.14127215)
    56a ->  64a  :     0.371189 (c= -0.60925290)
    56a ->  66a  :     0.013419 (c= -0.11584066)
    57a ->  64a  :     0.194908 (c= -0.44148334)
    58a ->  63a  :     0.125502 (c= -0.35426218)
    59a ->  65a  :     0.105626 (c=  0.32500136)
    59a ->  66a  :     0.080880 (c= -0.28439414)
    61a ->  68a  :     0.011781 (c=  0.10854216)

STATE 20:  E=   0.250156 au      6.807 eV    54902.8 cm**-1
    54a ->  62a  :     0.039931 (c= -0.19982710)
    55a ->  62a  :     0.038188 (c= -0.19541652)
    56a ->  63a  :     0.011251 (c= -0.10606874)
    56a ->  64a  :     0.250559 (c= -0.50055863)
    57a ->  64a  :     0.011848 (c= -0.10885012)
    58a ->  63a  :     0.032431 (c=  0.18008642)
    58a ->  64a  :     0.016072 (c=  0.12677352)
    58a ->  65a  :     0.053442 (c= -0.23117632)
    58a ->  66a  :     0.011929 (c=  0.10921872)
    59a ->  65a  :     0.158317 (c= -0.39789106)
    59a ->  66a  :     0.172949 (c=  0.41587092)
    60a ->  65a  :     0.021470 (c=  0.14652503)
    60a ->  66a  :     0.080600 (c= -0.28390116)
    61a ->  68a  :     0.027296 (c= -0.16521562)


                  ********************************
                  * Entering triplet calculation *
                  ********************************

------------------------
DAVIDSON-DIAGONALIZATION
------------------------

Dimension of the eigenvalue problem            ...   9504
Number of roots to be determined               ...     20
Maximum size of the expansion space            ...    200
Convergence tolerance for the residual         ...    2.500e-07
Convergence tolerance for the energies         ...    2.500e-07
Orthogonality tolerance                        ...    1.000e-14
Level Shift                                    ...    0.000e+00
Constructing the preconditioner                ... o.k.
Building the initial guess                     ... o.k.
Number of trial vectors determined             ...    200


                       ****Iteration    0****
                <<< Triplet sigma vectors requested >>>

   Memory handling for direct AO based CIS:
   Memory per vector needed      ...     1 MB
   Memory needed                 ...   106 MB
   Memory available              ... 12000 MB
   Number of vectors per batch   ...  6775
   Number of batches             ...     1
   Time for densities:     0.616
   Using LibInt in JK Direct
   Time for K (Direct):   372.087
   Time for XC-Integration:     5.196
   Time for Sigma-Completion:     0.443
   Size of expansion space: 60
   Lowest Energy          :     0.092161240179
   Maximum Energy change  :     0.223474041463 (vector 19)
   Maximum residual norm  :     0.002260529718

                       ****Iteration    1****
   Time for densities:     0.205
   Using LibInt in JK Direct
   Time for K (Direct):    59.183
   Time for XC-Integration:     1.836
   Time for Sigma-Completion:     0.150
   Size of expansion space: 80
   Lowest Energy          :     0.089059232216
   Maximum Energy change  :     0.004776568456 (vector 1)
   Maximum residual norm  :     0.000033096909

                       ****Iteration    2****
   Time for densities:     0.206
   Using LibInt in JK Direct
   Time for K (Direct):    57.125
   Time for XC-Integration:     1.848
   Time for Sigma-Completion:     0.150
   Size of expansion space: 100
   Lowest Energy          :     0.089043084972
   Maximum Energy change  :     0.000090400227 (vector 15)
   Maximum residual norm  :     0.000002060885

                       ****Iteration    3****
   Time for densities:     0.205
   Using LibInt in JK Direct
   Time for K (Direct):    57.441
   Time for XC-Integration:     1.917
   Time for Sigma-Completion:     0.150
   Size of expansion space: 120
   Lowest Energy          :     0.089042963345
   Maximum Energy change  :     0.000006216197 (vector 19)
   Maximum residual norm  :     0.000000143301

      *** CONVERGENCE OF RESIDUAL NORM REACHED ***

Storing the converged CI vectors               ... tddft.cis3

                 *** DAVIDSON DONE ***

------------------------------------
TD-DFT/TDA EXCITED STATES (TRIPLETS)
------------------------------------

the weight of the individual excitations are printed if larger than 0.01

STATE  1:  E=   0.089043 au      2.423 eV    19542.7 cm**-1
    61a ->  62a  :     0.934800 (c=  0.96685054)
    61a ->  64a  :     0.014915 (c=  0.12212886)

STATE  2:  E=   0.128235 au      3.489 eV    28144.2 cm**-1
    59a ->  62a  :     0.057024 (c=  0.23879660)
    59a ->  65a  :     0.013440 (c= -0.11593248)
    60a ->  62a  :     0.725255 (c=  0.85161883)
    60a ->  64a  :     0.107388 (c= -0.32770041)
    61a ->  64a  :     0.044427 (c=  0.21077639)

STATE  3:  E=   0.140282 au      3.817 eV    30788.4 cm**-1
    58a ->  63a  :     0.014853 (c=  0.12187317)
    59a ->  62a  :     0.632752 (c= -0.79545692)
    59a ->  64a  :     0.032445 (c=  0.18012395)
    60a ->  62a  :     0.079277 (c=  0.28156085)
    60a ->  64a  :     0.025610 (c= -0.16003087)
    61a ->  62a  :     0.010336 (c=  0.10166614)
    61a ->  64a  :     0.146732 (c= -0.38305629)
    61a ->  65a  :     0.010295 (c= -0.10146669)

STATE  4:  E=   0.146103 au      3.976 eV    32065.9 cm**-1
    57a ->  63a  :     0.029838 (c= -0.17273625)
    58a ->  62a  :     0.099551 (c= -0.31551731)
    58a ->  64a  :     0.014494 (c= -0.12039193)
    59a ->  63a  :     0.015556 (c=  0.12472472)
    61a ->  63a  :     0.789781 (c=  0.88869617)
    61a ->  64a  :     0.033241 (c= -0.18231986)

STATE  5:  E=   0.151354 au      4.119 eV    33218.3 cm**-1
    57a ->  62a  :     0.212355 (c=  0.46082037)
    57a ->  64a  :     0.028928 (c=  0.17008216)
    58a ->  63a  :     0.150423 (c=  0.38784443)
    59a ->  62a  :     0.171835 (c=  0.41452964)
    59a ->  64a  :     0.016299 (c= -0.12766699)
    61a ->  63a  :     0.014153 (c= -0.11896529)
    61a ->  64a  :     0.212894 (c= -0.46140466)
    61a ->  65a  :     0.026607 (c= -0.16311658)
    61a ->  66a  :     0.098521 (c=  0.31388079)

STATE  6:  E=   0.161991 au      4.408 eV    35553.0 cm**-1
    58a ->  62a  :     0.775459 (c= -0.88060157)
    58a ->  63a  :     0.019091 (c= -0.13816868)
    58a ->  64a  :     0.052672 (c= -0.22950285)
    58a ->  66a  :     0.011028 (c=  0.10501301)
    61a ->  63a  :     0.125144 (c= -0.35375656)

STATE  7:  E=   0.164718 au      4.482 eV    36151.3 cm**-1
    55a ->  62a  :     0.014653 (c=  0.12105033)
    57a ->  62a  :     0.017366 (c=  0.13178067)
    58a ->  63a  :     0.037044 (c=  0.19246869)
    59a ->  62a  :     0.020150 (c= -0.14195197)
    59a ->  64a  :     0.046355 (c= -0.21530181)
    59a ->  65a  :     0.252130 (c=  0.50212590)
    60a ->  62a  :     0.032619 (c=  0.18060812)
    60a ->  64a  :     0.064852 (c=  0.25465958)
    60a ->  65a  :     0.019396 (c= -0.13927079)
    60a ->  66a  :     0.015647 (c=  0.12508818)
    61a ->  64a  :     0.173003 (c=  0.41593638)
    61a ->  65a  :     0.262734 (c= -0.51257604)

STATE  8:  E=   0.166252 au      4.524 eV    36488.1 cm**-1
    55a ->  62a  :     0.031117 (c=  0.17639894)
    57a ->  62a  :     0.012441 (c= -0.11154024)
    58a ->  63a  :     0.341691 (c= -0.58454339)
    58a ->  64a  :     0.017724 (c=  0.13313325)
    59a ->  62a  :     0.022570 (c=  0.15023466)
    59a ->  65a  :     0.036306 (c=  0.19054092)
    60a ->  62a  :     0.047539 (c=  0.21803530)
    60a ->  64a  :     0.085014 (c=  0.29157188)
    60a ->  65a  :     0.010644 (c= -0.10316854)
    60a ->  66a  :     0.027064 (c=  0.16451162)
    61a ->  64a  :     0.250965 (c= -0.50096405)
    61a ->  65a  :     0.035303 (c= -0.18789120)
    61a ->  66a  :     0.023449 (c= -0.15312930)

STATE  9:  E=   0.171917 au      4.678 eV    37731.4 cm**-1
    55a ->  62a  :     0.035439 (c= -0.18825210)
    57a ->  62a  :     0.150518 (c=  0.38796703)
    57a ->  64a  :     0.016406 (c=  0.12808576)
    58a ->  63a  :     0.353923 (c= -0.59491435)
    58a ->  64a  :     0.017097 (c=  0.13075508)
    59a ->  64a  :     0.019620 (c= -0.14007312)
    60a ->  62a  :     0.019911 (c= -0.14110732)
    60a ->  64a  :     0.082131 (c= -0.28658579)
    60a ->  66a  :     0.017968 (c= -0.13404382)
    61a ->  62a  :     0.010003 (c= -0.10001313)
    61a ->  64a  :     0.028411 (c=  0.16855706)
    61a ->  65a  :     0.054242 (c= -0.23289879)
    61a ->  66a  :     0.138297 (c=  0.37188359)

STATE 10:  E=   0.177184 au      4.821 eV    38887.3 cm**-1
    55a ->  62a  :     0.028290 (c=  0.16819778)
    57a ->  62a  :     0.195162 (c=  0.44177164)
    58a ->  63a  :     0.016884 (c= -0.12993871)
    59a ->  62a  :     0.037375 (c= -0.19332559)
    59a ->  65a  :     0.045224 (c= -0.21265913)
    60a ->  62a  :     0.013739 (c=  0.11721220)
    60a ->  64a  :     0.205799 (c=  0.45365059)
    60a ->  65a  :     0.084348 (c= -0.29042720)
    60a ->  66a  :     0.018951 (c=  0.13766201)
    61a ->  64a  :     0.030589 (c=  0.17489828)
    61a ->  65a  :     0.256646 (c=  0.50660279)

STATE 11:  E=   0.181782 au      4.947 eV    39896.5 cm**-1
    56a ->  62a  :     0.829438 (c=  0.91073463)
    56a ->  66a  :     0.038123 (c=  0.19525187)
    56a ->  70a  :     0.010677 (c= -0.10333012)
    57a ->  62a  :     0.023405 (c=  0.15298841)
    60a ->  65a  :     0.037907 (c=  0.19469601)

STATE 12:  E=   0.184408 au      5.018 eV    40472.9 cm**-1
    54a ->  62a  :     0.020365 (c= -0.14270574)
    55a ->  62a  :     0.026890 (c= -0.16398241)
    56a ->  62a  :     0.069973 (c=  0.26452479)
    57a ->  62a  :     0.138160 (c= -0.37169903)
    59a ->  64a  :     0.166048 (c= -0.40748971)
    59a ->  66a  :     0.023736 (c= -0.15406475)
    60a ->  65a  :     0.299925 (c= -0.54765383)
    60a ->  66a  :     0.042380 (c= -0.20586510)
    61a ->  64a  :     0.014431 (c= -0.12012922)
    61a ->  66a  :     0.130917 (c=  0.36182472)

STATE 13:  E=   0.194389 au      5.290 eV    42663.4 cm**-1
    55a ->  62a  :     0.020645 (c= -0.14368519)
    57a ->  62a  :     0.106835 (c=  0.32685602)
    59a ->  64a  :     0.040975 (c=  0.20242379)
    59a ->  65a  :     0.133988 (c=  0.36604412)
    59a ->  66a  :     0.024860 (c=  0.15767003)
    60a ->  64a  :     0.080918 (c= -0.28446025)
    60a ->  65a  :     0.222037 (c= -0.47120824)
    60a ->  66a  :     0.079237 (c= -0.28149029)
    61a ->  65a  :     0.032443 (c=  0.18012069)
    61a ->  66a  :     0.200572 (c= -0.44785265)

STATE 14:  E=   0.200718 au      5.462 eV    44052.5 cm**-1
    57a ->  62a  :     0.022670 (c=  0.15056564)
    59a ->  63a  :     0.023175 (c= -0.15223404)
    59a ->  64a  :     0.512647 (c= -0.71599339)
    59a ->  65a  :     0.018628 (c=  0.13648264)
    59a ->  66a  :     0.022991 (c= -0.15162830)
    60a ->  64a  :     0.022735 (c= -0.15078128)
    60a ->  65a  :     0.100797 (c=  0.31748553)
    61a ->  62a  :     0.014334 (c=  0.11972371)
    61a ->  64a  :     0.020782 (c= -0.14415943)
    61a ->  65a  :     0.066606 (c=  0.25808101)
    61a ->  66a  :     0.128781 (c= -0.35886035)

STATE 15:  E=   0.207951 au      5.659 eV    45639.9 cm**-1
    55a ->  62a  :     0.067854 (c= -0.26048717)
    59a ->  64a  :     0.012443 (c=  0.11154855)
    59a ->  65a  :     0.357128 (c=  0.59760160)
    59a ->  66a  :     0.021180 (c=  0.14553239)
    60a ->  62a  :     0.014755 (c=  0.12146862)
    60a ->  64a  :     0.020661 (c=  0.14373818)
    60a ->  65a  :     0.130240 (c=  0.36088824)
    61a ->  65a  :     0.197471 (c=  0.44437672)
    61a ->  66a  :     0.115486 (c=  0.33983237)

STATE 16:  E=   0.211539 au      5.756 eV    46427.5 cm**-1
    55a ->  62a  :     0.202757 (c= -0.45028591)
    57a ->  63a  :     0.231500 (c=  0.48114470)
    58a ->  62a  :     0.023543 (c= -0.15343855)
    58a ->  64a  :     0.097318 (c=  0.31195754)
    58a ->  65a  :     0.011540 (c=  0.10742608)
    58a ->  66a  :     0.027264 (c= -0.16511857)
    59a ->  63a  :     0.116846 (c= -0.34182738)
    59a ->  65a  :     0.017116 (c= -0.13082907)
    60a ->  62a  :     0.015653 (c=  0.12511077)
    60a ->  64a  :     0.090130 (c=  0.30021628)
    60a ->  66a  :     0.020899 (c= -0.14456333)
    61a ->  63a  :     0.019555 (c=  0.13983889)
    61a ->  65a  :     0.014273 (c= -0.11946990)
    61a ->  66a  :     0.030036 (c= -0.17330868)

STATE 17:  E=   0.211601 au      5.758 eV    46441.0 cm**-1
    55a ->  62a  :     0.267531 (c= -0.51723431)
    57a ->  63a  :     0.153311 (c= -0.39154907)
    57a ->  64a  :     0.011459 (c=  0.10704490)
    58a ->  62a  :     0.012687 (c=  0.11263777)
    58a ->  64a  :     0.054135 (c= -0.23266927)
    58a ->  66a  :     0.017261 (c=  0.13138096)
    59a ->  63a  :     0.076866 (c=  0.27724791)
    59a ->  64a  :     0.012503 (c= -0.11181545)
    59a ->  65a  :     0.030768 (c= -0.17540859)
    60a ->  62a  :     0.021465 (c=  0.14650988)
    60a ->  63a  :     0.083910 (c=  0.28967275)
    60a ->  64a  :     0.071239 (c=  0.26690608)
    60a ->  66a  :     0.027054 (c= -0.16448001)
    61a ->  63a  :     0.016960 (c= -0.13022868)
    61a ->  65a  :     0.013671 (c= -0.11692379)
    61a ->  66a  :     0.042907 (c= -0.20713973)

STATE 18:  E=   0.214401 au      5.834 eV    47055.7 cm**-1
    57a ->  63a  :     0.041954 (c= -0.20482723)
    58a ->  64a  :     0.035378 (c= -0.18809042)
    60a ->  63a  :     0.817238 (c= -0.90401226)
    60a ->  64a  :     0.055792 (c=  0.23620309)

STATE 19:  E=   0.218537 au      5.947 eV    47963.3 cm**-1
    57a ->  63a  :     0.019690 (c= -0.14031985)
    58a ->  62a  :     0.042904 (c= -0.20713275)
    58a ->  64a  :     0.357283 (c=  0.59773165)
    58a ->  65a  :     0.027525 (c=  0.16590631)
    58a ->  66a  :     0.054746 (c= -0.23397864)
    59a ->  63a  :     0.411539 (c=  0.64151315)
    59a ->  64a  :     0.015144 (c= -0.12306078)
    60a ->  63a  :     0.040259 (c= -0.20064694)

STATE 20:  E=   0.222251 au      6.048 eV    48778.4 cm**-1
    57a ->  62a  :     0.010089 (c=  0.10044645)
    57a ->  63a  :     0.158228 (c=  0.39777861)
    57a ->  64a  :     0.040846 (c= -0.20210403)
    58a ->  64a  :     0.077271 (c= -0.27797635)
    59a ->  63a  :     0.192785 (c=  0.43907259)
    59a ->  66a  :     0.022047 (c= -0.14848162)
    61a ->  67a  :     0.383768 (c= -0.61949038)
    61a ->  70a  :     0.017453 (c= -0.13211057)


-----------------------------
TD-DFT/TDA-EXCITATION SPECTRA
-----------------------------

Center of mass = (  2.5687,  1.9139, -0.0137)
Calculating the Dipole integrals                  ... done
Transforming integrals                            ... done
Calculating the Linear Momentum integrals         ... done
Transforming integrals                            ... done
Calculating angular momentum integrals            ... done
Transforming integrals                            ... done

-----------------------------------------------------------------------------
         ABSORPTION SPECTRUM VIA TRANSITION ELECTRIC DIPOLE MOMENTS
-----------------------------------------------------------------------------
State   Energy  Wavelength   fosc         T2         TX        TY        TZ  
        (cm-1)    (nm)                  (au**2)     (au)      (au)      (au) 
-----------------------------------------------------------------------------
   1   30742.3    325.3   1.115692887  11.94768  -3.44740   0.24984   0.02597
   2   35716.9    280.0   0.002696978   0.02486  -0.06556   0.13424   0.05041
   3   36171.7    276.5   0.093819000   0.85388   0.82713  -0.38889   0.13600
   4   37001.4    270.3   0.179933432   1.60092   1.23513   0.27305  -0.02834
   5   39970.3    250.2   0.016084516   0.13248  -0.02195   0.36294   0.01658
   6   41156.8    243.0   0.036302743   0.29038  -0.09371   0.48050   0.22522
   7   42219.5    236.9   0.017728017   0.13824  -0.14325  -0.34308   0.00334
   8   42730.9    234.0   0.004387945   0.03381  -0.10560   0.06406  -0.13620
   9   44460.0    224.9   0.085532797   0.63334  -0.79070   0.08537  -0.02903
  10   46395.1    215.5   0.013062444   0.09269   0.19739   0.23158  -0.00979
  11   47018.9    212.7   0.003698137   0.02589   0.15940  -0.01699   0.01401
  12   47273.6    211.5   0.018671045   0.13002  -0.34958   0.06992  -0.05414
  13   48130.9    207.8   0.011706023   0.08007  -0.09520   0.25493  -0.07757
  14   48241.9    207.3   0.028821247   0.19668   0.05794  -0.43331   0.07462
  15   49899.6    200.4   0.001876628   0.01238  -0.04100  -0.10081  -0.02319
  16   50582.4    197.7   0.004014730   0.02613   0.16150  -0.00472  -0.00515
  17   51964.7    192.4   0.038851576   0.24614  -0.49593  -0.01283   0.00457
  18   53980.9    185.3   0.635155005   3.87360   1.88600   0.54657  -0.13372
  19   54637.4    183.0   0.106337673   0.64073   0.77837  -0.18142   0.04416
  20   54902.8    182.1   0.114644755   0.68744  -0.79853   0.21703  -0.05178
  21   19542.7    511.7   spin forbidden (mult=3)
  22   28144.2    355.3   spin forbidden (mult=3)
  23   30788.4    324.8   spin forbidden (mult=3)
  24   32065.9    311.9   spin forbidden (mult=3)
  25   33218.3    301.0   spin forbidden (mult=3)
  26   35553.0    281.3   spin forbidden (mult=3)
  27   36151.3    276.6   spin forbidden (mult=3)
  28   36488.1    274.1   spin forbidden (mult=3)
  29   37731.4    265.0   spin forbidden (mult=3)
  30   38887.3    257.2   spin forbidden (mult=3)
  31   39896.5    250.6   spin forbidden (mult=3)
  32   40472.9    247.1   spin forbidden (mult=3)
  33   42663.4    234.4   spin forbidden (mult=3)
  34   44052.5    227.0   spin forbidden (mult=3)
  35   45639.9    219.1   spin forbidden (mult=3)
  36   46427.5    215.4   spin forbidden (mult=3)
  37   46441.0    215.3   spin forbidden (mult=3)
  38   47055.7    212.5   spin forbidden (mult=3)
  39   47963.3    208.5   spin forbidden (mult=3)
  40   48778.4    205.0   spin forbidden (mult=3)

-----------------------------------------------------------------------------
         ABSORPTION SPECTRUM VIA TRANSITION VELOCITY DIPOLE MOMENTS
-----------------------------------------------------------------------------
State   Energy  Wavelength   fosc         P2         PX        PY        PZ  
        (cm-1)    (nm)                  (au**2)     (au)      (au)      (au) 
-----------------------------------------------------------------------------
   1   30742.3    325.3   0.271697228   0.05709   0.23138   0.05913   0.00729
   2   35716.9    280.0   0.001296479   0.00032   0.00565   0.01367   0.00989
   3   36171.7    276.5   0.031393745   0.00776  -0.04532  -0.07260   0.02089
   4   37001.4    270.3   0.042846697   0.01084  -0.10326   0.01000   0.00855
   5   39970.3    250.2   0.004987450   0.00136   0.03067  -0.01196   0.01669
   6   41156.8    243.0   0.005448733   0.00153   0.01452   0.02940   0.02139
   7   42219.5    236.9   0.004141417   0.00120   0.02552  -0.02329  -0.00113
   8   42730.9    234.0   0.001618488   0.00047   0.01253  -0.00107  -0.01773
   9   44460.0    224.9   0.024483754   0.00744   0.08535   0.01200  -0.00335
  10   46395.1    215.5   0.001351638   0.00043  -0.02054  -0.00161   0.00201
  11   47018.9    212.7   0.000588330   0.00019  -0.01250  -0.00049   0.00570
  12   47273.6    211.5   0.002504443   0.00081   0.02364  -0.01458  -0.00613
  13   48130.9    207.8   0.001349200   0.00044  -0.00459   0.02032  -0.00314
  14   48241.9    207.3   0.002454636   0.00081   0.00829  -0.02663  -0.00561
  15   49899.6    200.4   0.000350549   0.00012   0.00618  -0.00074  -0.00899
  16   50582.4    197.7   0.001879647   0.00065  -0.01718  -0.01482  -0.01162
  17   51964.7    192.4   0.018454946   0.00655   0.07383   0.03217  -0.00825
  18   53980.9    185.3   0.194304262   0.07169  -0.26673  -0.02289   0.00426
  19   54637.4    183.0   0.026964283   0.01007  -0.09794  -0.01974   0.00929
  20   54902.8    182.1   0.034073008   0.01279   0.10255   0.04734  -0.00523
  21   19542.7    511.7   spin forbidden (mult=3)
  22   28144.2    355.3   spin forbidden (mult=3)
  23   30788.4    324.8   spin forbidden (mult=3)
  24   32065.9    311.9   spin forbidden (mult=3)
  25   33218.3    301.0   spin forbidden (mult=3)
  26   35553.0    281.3   spin forbidden (mult=3)
  27   36151.3    276.6   spin forbidden (mult=3)
  28   36488.1    274.1   spin forbidden (mult=3)
  29   37731.4    265.0   spin forbidden (mult=3)
  30   38887.3    257.2   spin forbidden (mult=3)
  31   39896.5    250.6   spin forbidden (mult=3)
  32   40472.9    247.1   spin forbidden (mult=3)
  33   42663.4    234.4   spin forbidden (mult=3)
  34   44052.5    227.0   spin forbidden (mult=3)
  35   45639.9    219.1   spin forbidden (mult=3)
  36   46427.5    215.4   spin forbidden (mult=3)
  37   46441.0    215.3   spin forbidden (mult=3)
  38   47055.7    212.5   spin forbidden (mult=3)
  39   47963.3    208.5   spin forbidden (mult=3)
  40   48778.4    205.0   spin forbidden (mult=3)

-------------------------------------------------------------------
                             CD SPECTRUM
-------------------------------------------------------------------
State   Energy Wavelength       R         MX        MY        MZ   
        (cm-1)   (nm)       (1e40*sgs)   (au)      (au)      (au)  
-------------------------------------------------------------------
   1   30742.3    325.3    -36.39841   0.02880   0.08821   0.00140
   2   35716.9    280.0      2.32421  -0.03456  -0.03909   0.15694
   3   36171.7    276.5      2.07107   0.00085  -0.05556  -0.13174
   4   37001.4    270.3     -1.89998  -0.00626   0.00491  -0.08347
   5   39970.3    250.2      3.96539   0.03114   0.03071  -0.12379
   6   41156.8    243.0     13.57150  -0.05090  -0.01476   0.13813
   7   42219.5    236.9     -4.26055  -0.05775   0.05176   0.13447
   8   42730.9    234.0     17.31283  -0.18633   0.05209  -0.10066
   9   44460.0    224.9    -17.29276   0.04711  -0.00563  -0.03613
  10   46395.1    215.5      3.44061   0.00733   0.02310  -0.05142
  11   47018.9    212.7     -1.84157  -0.02197   0.01226  -0.01397
  12   47273.6    211.5     -5.29334   0.01884  -0.05746   0.01153
  13   48130.9    207.8      1.71434   0.03411   0.02765   0.00215
  14   48241.9    207.3      6.02260  -0.00776  -0.02935   0.00680
  15   49899.6    200.4     -0.83389   0.05785   0.00991  -0.06910
  16   50582.4    197.7      5.09731   0.06871   0.00333   0.05207
  17   51964.7    192.4      5.85724  -0.02557   0.02512   0.01455
  18   53980.9    185.3     31.45091   0.01722  -0.00954  -0.29505
  19   54637.4    183.0    -13.04777  -0.04956  -0.06284  -0.01129
  20   54902.8    182.1    -18.70787   0.04757   0.00884   0.06976
  21   19542.7    511.7 spin forbidden
  22   28144.2    355.3 spin forbidden
  23   30788.4    324.8 spin forbidden
  24   32065.9    311.9 spin forbidden
  25   33218.3    301.0 spin forbidden
  26   35553.0    281.3 spin forbidden
  27   36151.3    276.6 spin forbidden
  28   36488.1    274.1 spin forbidden
  29   37731.4    265.0 spin forbidden
  30   38887.3    257.2 spin forbidden
  31   39896.5    250.6 spin forbidden
  32   40472.9    247.1 spin forbidden
  33   42663.4    234.4 spin forbidden
  34   44052.5    227.0 spin forbidden
  35   45639.9    219.1 spin forbidden
  36   46427.5    215.4 spin forbidden
  37   46441.0    215.3 spin forbidden
  38   47055.7    212.5 spin forbidden
  39   47963.3    208.5 spin forbidden
  40   48778.4    205.0 spin forbidden

Total run time:     1924.637 sec

           *** ORCA-CIS/TD-DFT FINISHED WITHOUT ERROR ***

-----------------------
CIS/TD-DFT TOTAL ENERGY
-----------------------

    E(SCF)  =   -743.216936265 Eh
    DE(CIS) =      0.140072362 Eh (Root  1)
    ----------------------------- ---------
    E(tot)  =   -743.076863903 Eh


-------------------------   --------------------
FINAL SINGLE POINT ENERGY      -743.076863903095
-------------------------   --------------------


                            ***************************************
                            *     ORCA property calculations      *
                            ***************************************

                                    ---------------------
                                    Active property flags
                                    ---------------------
   (+) Dipole Moment


------------------------------------------------------------------------------
                       ORCA ELECTRIC PROPERTIES CALCULATION
------------------------------------------------------------------------------

Dipole Moment Calculation                       ... on
Quadrupole Moment Calculation                   ... off
Polarizability Calculation                      ... off
GBWName                                         ... tddft.gbw
Electron density file                           ... tddft.scfp.tmp

-------------
DIPOLE MOMENT
-------------
                                X             Y             Z
Electronic contribution:     -4.82828       0.43414       0.02933
Nuclear contribution   :      4.99755      -1.09099      -0.01844
                        -----------------------------------------
Total Dipole Moment    :      0.16926      -0.65685       0.01089
                        -----------------------------------------
Magnitude (a.u.)       :      0.67839
Magnitude (Debye)      :      1.72434


Timings for individual modules:

Sum of individual times         ...     1953.477 sec (=  32.558 min)
GTO integral calculation        ...        2.106 sec (=   0.035 min)   0.1 %
SCF iterations                  ...       20.415 sec (=   0.340 min)   1.0 %
CIS module                      ...     1930.956 sec (=  32.183 min)  98.8 %



                             ****ORCA TERMINATED NORMALLY****
TOTAL RUN TIME: 0 days 0 hours 50 minutes 46 seconds 840 msec
