
                                        *****************
                                        * O   R   C   A *
                                        *****************

                                            #,                                       
                                            ###                                      
                                            ####                                     
                                            #####                                    
                                            ######                                   
                                           ########,                                 
                                     ,,################,,,,,                         
                               ,,#################################,,                 
                          ,,##########################################,,             
                       ,#########################################, ''#####,          
                    ,#############################################,,   '####,        
                  ,##################################################,,,,####,       
                ,###########''''           ''''###############################       
              ,#####''   ,,,,##########,,,,          '''####'''          '####       
            ,##' ,,,,###########################,,,                        '##       
           ' ,,###''''                  '''############,,,                           
         ,,##''                                '''############,,,,        ,,,,,,###''
      ,#''                                            '''#######################'''  
     '                                                          ''''####''''         
             ,#######,   #######,   ,#######,      ##                                
            ,#'     '#,  ##    ##  ,#'     '#,    #''#        ######   ,####,        
            ##       ##  ##   ,#'  ##            #'  '#       #        #'  '#        
            ##       ##  #######   ##           ,######,      #####,   #    #        
            '#,     ,#'  ##    ##  '#,     ,#' ,#      #,         ##   #,  ,#        
             '#######'   ##     ##  '#######'  #'      '#     #####' # '####'        



                  #######################################################
                  #                        -***-                        #
                  #          Department of theory and spectroscopy      #
                  #    Directorship and core code : Frank Neese         #
                  #        Max Planck Institute fuer Kohlenforschung    #
                  #                Kaiser Wilhelm Platz 1               #
                  #                 D-45470 Muelheim/Ruhr               #
                  #                      Germany                        #
                  #                                                     #
                  #                  All rights reserved                #
                  #                        -***-                        #
                  #######################################################


                         Program Version 5.0.0 -  RELEASE  -
                                (SVN: $Rev: 19529$)
                ($Date: 2021-06-28 11:36:33 +0200 (Mo, 28 Jun 2021) $)


 With contributions from (in alphabetic order):
   Daniel Aravena         : Magnetic Suceptibility
   Michael Atanasov       : Ab Initio Ligand Field Theory (pilot matlab implementation)
   Alexander A. Auer      : GIAO ZORA, VPT2 properties, NMR spectrum
   Ute Becker             : Parallelization
   Giovanni Bistoni       : ED, misc. LED, open-shell LED, HFLD
   Martin Brehm           : Molecular dynamics
   Dmytro Bykov           : SCF Hessian
   Vijay G. Chilkuri      : MRCI spin determinant printing, contributions to CSF-ICE
   Dipayan Datta          : RHF DLPNO-CCSD density
   Achintya Kumar Dutta   : EOM-CC, STEOM-CC
   Dmitry Ganyushin       : Spin-Orbit,Spin-Spin,Magnetic field MRCI
   Miquel Garcia          : C-PCM Hessian, Gaussian charge scheme
   Yang Guo               : DLPNO-NEVPT2, F12-NEVPT2, CIM, IAO-localization
   Andreas Hansen         : Spin unrestricted coupled pair/coupled cluster methods
   Benjamin Helmich-Paris : MC-RPA, TRAH-SCF, COSX integrals
   Lee Huntington         : MR-EOM, pCC
   Robert Izsak           : Overlap fitted RIJCOSX, COSX-SCS-MP3, EOM
   Marcus Kettner         : VPT2
   Christian Kollmar      : KDIIS, OOCD, Brueckner-CCSD(T), CCSD density, CASPT2, CASPT2-K
   Simone Kossmann        : Meta GGA functionals, TD-DFT gradient, OOMP2, MP2 Hessian
   Martin Krupicka        : Initial AUTO-CI
   Lucas Lang             : DCDCAS
   Marvin Lechner         : AUTO-CI (C++ implementation), FIC-MRCC
   Dagmar Lenk            : GEPOL surface, SMD
   Dimitrios Liakos       : Extrapolation schemes; Compound Job, initial MDCI parallelization
   Dimitrios Manganas     : Further ROCIS development; embedding schemes
   Dimitrios Pantazis     : SARC Basis sets
   Anastasios Papadopoulos: AUTO-CI, single reference methods and gradients
   Taras Petrenko         : DFT Hessian,TD-DFT gradient, ASA, ECA, R-Raman, ABS, FL, XAS/XES, NRVS
   Peter Pinski           : DLPNO-MP2, DLPNO-MP2 Gradient
   Christoph Reimann      : Effective Core Potentials
   Marius Retegan         : Local ZFS, SOC
   Christoph Riplinger    : Optimizer, TS searches, QM/MM, DLPNO-CCSD(T), (RO)-DLPNO pert. Triples
   Tobias Risthaus        : Range-separated hybrids, TD-DFT gradient, RPA, STAB
   Michael Roemelt        : Original ROCIS implementation
   Masaaki Saitow         : Open-shell DLPNO-CCSD energy and density
   Barbara Sandhoefer     : DKH picture change effects
   Avijit Sen             : IP-ROCIS
   Kantharuban Sivalingam : CASSCF convergence, NEVPT2, FIC-MRCI
   Bernardo de Souza      : ESD, SOC TD-DFT
   Georgi Stoychev        : AutoAux, RI-MP2 NMR
   Willem Van den Heuvel  : Paramagnetic NMR
   Boris Wezisla          : Elementary symmetry handling
   Frank Wennmohs         : Technical directorship


 We gratefully acknowledge several colleagues who have allowed us to
 interface, adapt or use parts of their codes:
   Stefan Grimme, W. Hujo, H. Kruse, P. Pracht,  : VdW corrections, initial TS optimization,
                  C. Bannwarth, S. Ehlert          DFT functionals, gCP, sTDA/sTD-DF
   Ed Valeev, F. Pavosevic, A. Kumar             : LibInt (2-el integral package), F12 methods
   Garnet Chan, S. Sharma, J. Yang, R. Olivares  : DMRG
   Ulf Ekstrom                                   : XCFun DFT Library
   Mihaly Kallay                                 : mrcc  (arbitrary order and MRCC methods)
   Jiri Pittner, Ondrej Demel                    : Mk-CCSD
   Frank Weinhold                                : gennbo (NPA and NBO analysis)
   Christopher J. Cramer and Donald G. Truhlar   : smd solvation model
   Lars Goerigk                                  : TD-DFT with DH, B97 family of functionals
   V. Asgeirsson, H. Jonsson                     : NEB implementation
   FAccTs GmbH                                   : IRC, NEB, NEB-TS, DLPNO-Multilevel, CI-OPT
                                                   MM, QMMM, 2- and 3-layer-ONIOM, Crystal-QMMM,
                                                   LR-CPCM, SF, NACMEs, symmetry and pop. for TD-DFT,
                                                   nearIR, NL-DFT gradient (VV10), updates on ESD,
                                                   ML-optimized integration grids
   S Lehtola, MJT Oliveira, MAL Marques          : LibXC Library
   Liviu Ungur et al                             : ANISO software


 Your calculation uses the libint2 library for the computation of 2-el integrals
 For citations please refer to: http://libint.valeyev.net

 Your ORCA version has been built with support for libXC version: 5.1.0
 For citations please refer to: https://tddft.org/programs/libxc/

 This ORCA versions uses:
   CBLAS   interface :  Fast vector & matrix operations
   LAPACKE interface :  Fast linear algebra routines
   SCALAPACK package :  Parallel linear algebra routines
   Shared memory     :  Shared parallel matrices
   BLAS/LAPACK       :  OpenBLAS 0.3.15  USE64BITINT DYNAMIC_ARCH NO_AFFINITY SkylakeX SINGLE_THREADED
        Core in use  :  SkylakeX
   Copyright (c) 2011-2014, The OpenBLAS Project




***************************************
The coordinates will be read from file: xtbopt.xyz
***************************************


Your calculation utilizes the atom-pairwise dispersion correction
with the Becke-Johnson damping scheme (D3BJ)
Cite in your paper:
S.Grimme, S.Ehrlich, L.Goerigk, J Comput Chem, (2011), 32, 1456–1465 
S.Grimme, J.Antony, S.Ehrlich and H.Krieg, J.Chem.Phys., 132, (2010), 154104 
   

================================================================================

----- Orbital basis set information -----
Your calculation utilizes the basis: def2-SVP
   F. Weigend and R. Ahlrichs, Phys. Chem. Chem. Phys. 7, 3297 (2005).

----- AuxJ basis set information -----
Your calculation utilizes the auxiliary basis: def2/J
   F. Weigend, Phys. Chem. Chem. Phys. 8, 1057 (2006).

================================================================================
                                        WARNINGS
                       Please study these warnings very carefully!
================================================================================

WARNING: Old DensityContainer found on disk!
         Will remove this file - 
         If you want to keep old densities, please start your calculation with a different basename. 


INFO   : the flag for use of the SHARK integral package has been found!

================================================================================
                                       INPUT FILE
================================================================================
NAME = scf_pbe0_ad_f.inp
|  1> %pal nprocs 1 end
|  2> 
|  3> !PBE0 def2-SVP D3BJ ABC DEFGRID1
|  4> 
|  5> %maxcore 1250
|  6> 
|  7> %scf
|  8> maxiter 2000
|  9> end
| 10> 
| 11> * xyzfile 0 1 xtbopt.xyz
| 12> 
| 13> 
| 14>                          ****END OF INPUT****
================================================================================

                       ****************************
                       * Single Point Calculation *
                       ****************************

---------------------------------
CARTESIAN COORDINATES (ANGSTROEM)
---------------------------------
  C     14.999788   14.977822   15.026011
  C     14.080632   14.126477   15.918736
  C     15.892300   14.102237   14.149849
  C     13.228441   13.208309   15.025798
  C     16.861697   13.229515   14.993611
  B     14.980033   13.226011   16.918770
  C     15.034083   13.172353   13.287331
  C     14.103208   12.314997   14.149635
  B     15.836463   12.368839   15.857404
  C     14.974826   11.344599   14.993387
  H     16.490062   14.733199   13.483187
  H     12.572084   12.591316   15.642435
  H     12.600970   13.819686   14.372982
  H     17.537739   13.883796   15.556944
  F     14.272263   13.935068   12.420635
  H     15.667120   12.538736   12.655618
  F     15.664511   10.518157   14.121644
  H     14.319779   10.669169   15.556564
  H     13.413024   14.794709   16.470944
  F     17.687526   12.539079   14.121882
  H     13.471709   11.717966   13.482826
  F     14.831060   13.374942   18.218412
  H     14.389140   15.606002   14.373196
  H     15.617384   15.633467   15.642801

----------------------------
CARTESIAN COORDINATES (A.U.)
----------------------------
  NO LB      ZA    FRAG     MASS         X           Y           Z
   0 C     6.0000    0    12.011   28.345491   28.303981   28.395045
   1 C     6.0000    0    12.011   26.608538   26.695172   30.082052
   2 C     6.0000    0    12.011   30.032095   26.649366   26.739339
   3 C     6.0000    0    12.011   24.998130   24.960086   28.394643
   4 C     6.0000    0    12.011   31.863989   25.000161   28.333818
   5 B     5.0000    0    10.810   28.308160   24.993539   31.971841
   6 C     6.0000    0    12.011   28.410300   24.892140   25.109417
   7 C     6.0000    0    12.011   26.651200   23.271971   26.738934
   8 B     5.0000    0    10.810   29.926578   23.373719   29.966150
   9 C     6.0000    0    12.011   28.298319   21.438186   28.333395
  10 H     1.0000    0     1.008   31.161701   27.841711   25.479531
  11 H     1.0000    0     1.008   23.757795   23.794140   29.559919
  12 H     1.0000    0     1.008   23.812383   26.115421   27.160999
  13 H     1.0000    0     1.008   33.141525   26.236573   29.398363
  14 F     9.0000    0    18.998   26.970668   26.333462   23.471599
  15 H     1.0000    0     1.008   29.606567   23.694776   23.915652
  16 F     9.0000    0    18.998   29.601635   19.876435   26.686039
  17 H     1.0000    0     1.008   27.060460   20.161807   29.397646
  18 H     1.0000    0     1.008   25.346942   27.957949   31.125574
  19 F     9.0000    0    18.998   33.424579   23.695424   26.686489
  20 H     1.0000    0     1.008   25.457840   22.143746   25.478849
  21 F     9.0000    0    18.998   28.026642   25.274977   34.427809
  22 H     1.0000    0     1.008   27.191533   29.491071   27.161403
  23 H     1.0000    0     1.008   29.512579   29.542971   29.560611

--------------------------------
INTERNAL COORDINATES (ANGSTROEM)
--------------------------------
 C      0   0   0     0.000000000000     0.00000000     0.00000000
 C      1   0   0     1.538374448439     0.00000000     0.00000000
 C      1   2   0     1.526723868645   111.40339744     0.00000000
 C      2   1   3     1.538376021912   108.93179876   302.25164024
 C      3   1   2     1.553482449792   112.04166547   296.88138751
 B      2   1   3     1.618588152913   109.53648690    62.04186541
 C      3   1   2     1.531390597096   110.11169443    57.51740922
 C      4   2   1     1.526723875499   111.40327132    57.74832803
 B      5   3   1     1.593111769986   101.32756251    60.23112723
 C      8   4   2     1.553481905317   112.04161850    63.11851558
 H      3   1   2     1.095385391606   109.75137883   176.55770853
 H      4   2   1     1.091661941823   110.03052528   179.70409916
 H      4   2   1     1.092551766839   109.32849739   298.11727740
 H      5   3   1     1.096568151150   109.18016696   297.17974840
 F      7   3   1     1.383208476077   109.07102711    63.86165777
 H      7   3   1     1.096023823861   110.60825314   180.07400087
 F     10   8   4     1.385138640952   108.07409259   176.11509038
 H     10   8   4     1.096568523633   109.18017332    62.82002917
 H      2   1   3     1.094151941548   108.62988413   184.08573112
 F      5   3   1     1.385138467646   108.07403580   183.88469007
 H      8   4   2     1.095385725191   109.75138703   183.44218547
 F      6   2   1     1.316602593629   118.95219342   120.29174508
 H      1   2   3     1.092551748805   109.32850174   119.63101144
 H      1   2   3     1.091662228332   110.03045403   238.04412697

---------------------------
INTERNAL COORDINATES (A.U.)
---------------------------
 C      0   0   0     0.000000000000     0.00000000     0.00000000
 C      1   0   0     2.907106398972     0.00000000     0.00000000
 C      1   2   0     2.885089993860   111.40339744     0.00000000
 C      2   1   3     2.907109372405   108.93179876   302.25164024
 C      3   1   2     2.935656383959   112.04166547   296.88138751
 B      2   1   3     3.058688332614   109.53648690    62.04186541
 C      3   1   2     2.893908832573   110.11169443    57.51740922
 C      4   2   1     2.885090006813   111.40327132    57.74832803
 B      5   3   1     3.010544946001   101.32756251    60.23112723
 C      8   4   2     2.935655355052   112.04161850    63.11851558
 H      3   1   2     2.069978401233   109.75137883   176.55770853
 H      4   2   1     2.062942100869   110.03052528   179.70409916
 H      4   2   1     2.064623626457   109.32849739   298.11727740
 H      5   3   1     2.072213492854   109.18016696   297.17974840
 F      7   3   1     2.613885205904   109.07102711    63.86165777
 H      7   3   1     2.071184863350   110.60825314   180.07400087
 F     10   8   4     2.617532688912   108.07409259   176.11509038
 H     10   8   4     2.072214196746   109.18017332    62.82002917
 H      2   1   3     2.067647518425   108.62988413   184.08573112
 F      5   3   1     2.617532361410   108.07403580   183.88469007
 H      8   4   2     2.069979031618   109.75138703   183.44218547
 F      6   2   1     2.488018329168   118.95219342   120.29174508
 H      1   2   3     2.064623592378   109.32850174   119.63101144
 H      1   2   3     2.062942642293   110.03045403   238.04412697

---------------------
BASIS SET INFORMATION
---------------------
There are 4 groups of distinct atoms

 Group   1 Type C   : 7s4p1d contracted to 3s2p1d pattern {511/31/1}
 Group   2 Type B   : 7s4p1d contracted to 3s2p1d pattern {511/31/1}
 Group   3 Type H   : 4s1p contracted to 2s1p pattern {31/1}
 Group   4 Type F   : 7s4p1d contracted to 3s2p1d pattern {511/31/1}

Atom   0C    basis set group =>   1
Atom   1C    basis set group =>   1
Atom   2C    basis set group =>   1
Atom   3C    basis set group =>   1
Atom   4C    basis set group =>   1
Atom   5B    basis set group =>   2
Atom   6C    basis set group =>   1
Atom   7C    basis set group =>   1
Atom   8B    basis set group =>   2
Atom   9C    basis set group =>   1
Atom  10H    basis set group =>   3
Atom  11H    basis set group =>   3
Atom  12H    basis set group =>   3
Atom  13H    basis set group =>   3
Atom  14F    basis set group =>   4
Atom  15H    basis set group =>   3
Atom  16F    basis set group =>   4
Atom  17H    basis set group =>   3
Atom  18H    basis set group =>   3
Atom  19F    basis set group =>   4
Atom  20H    basis set group =>   3
Atom  21F    basis set group =>   4
Atom  22H    basis set group =>   3
Atom  23H    basis set group =>   3
---------------------------------
AUXILIARY/J BASIS SET INFORMATION
---------------------------------
There are 4 groups of distinct atoms

 Group   1 Type C   : 12s5p4d2f1g contracted to 6s4p3d1f1g pattern {711111/2111/211/2/1}
 Group   2 Type B   : 12s5p4d2f1g contracted to 6s4p3d1f1g pattern {711111/2111/211/2/1}
 Group   3 Type H   : 5s2p1d contracted to 3s1p1d pattern {311/2/1}
 Group   4 Type F   : 12s5p4d2f1g contracted to 6s4p3d1f1g pattern {711111/2111/211/2/1}

Atom   0C    basis set group =>   1
Atom   1C    basis set group =>   1
Atom   2C    basis set group =>   1
Atom   3C    basis set group =>   1
Atom   4C    basis set group =>   1
Atom   5B    basis set group =>   2
Atom   6C    basis set group =>   1
Atom   7C    basis set group =>   1
Atom   8B    basis set group =>   2
Atom   9C    basis set group =>   1
Atom  10H    basis set group =>   3
Atom  11H    basis set group =>   3
Atom  12H    basis set group =>   3
Atom  13H    basis set group =>   3
Atom  14F    basis set group =>   4
Atom  15H    basis set group =>   3
Atom  16F    basis set group =>   4
Atom  17H    basis set group =>   3
Atom  18H    basis set group =>   3
Atom  19F    basis set group =>   4
Atom  20H    basis set group =>   3
Atom  21F    basis set group =>   4
Atom  22H    basis set group =>   3
Atom  23H    basis set group =>   3

Checking for AutoStart:
The File: scf_pbe0_ad_f.gbw exists
Trying to determine its content:
     ... Fine, the file contains calculation information
     ... Fine, the calculation information was read
     ... Fine, the file contains a basis set
     ... Fine, the basis set was read
     ... Fine, the file contains a geometry
     ... Fine, the geometry was read
     ... Fine, the file contains a set of orbitals
     ... Fine, the orbitals can be read
     => possible old guess file was deleted
     => GBW file was renamed to GES file
     => GES file is set as startup file
     => Guess is set to MORead
     ... now leaving AutoStart

------------------------------------------------------------------------------
                           ORCA GTO INTEGRAL CALCULATION
                           -- RI-GTO INTEGRALS CHOSEN --
------------------------------------------------------------------------------
------------------------------------------------------------------------------
                   ___                                                        
                  /   \      - P O W E R E D   B Y -                         
                 /     \                                                     
                 |  |  |   _    _      __       _____    __    __             
                 |  |  |  | |  | |    /  \     |  _  \  |  |  /  |          
                  \  \/   | |  | |   /    \    | | | |  |  | /  /          
                 / \  \   | |__| |  /  /\  \   | |_| |  |  |/  /          
                |  |  |   |  __  | /  /__\  \  |    /   |      \           
                |  |  |   | |  | | |   __   |  |    \   |  |\   \          
                \     /   | |  | | |  |  |  |  | |\  \  |  | \   \       
                 \___/    |_|  |_| |__|  |__|  |_| \__\ |__|  \__/        
                                                                              
                      - O R C A' S   B I G   F R I E N D -                    
                                      &                                       
                       - I N T E G R A L  F E E D E R -                       
                                                                              
 v1 FN, 2020, v2 2021                                                         
------------------------------------------------------------------------------


Reading SHARK input file scf_pbe0_ad_f.SHARKINP.tmp ... ok
----------------------
SHARK INTEGRAL PACKAGE
----------------------

Number of atoms                             ...     24
Number of basis functions                   ...    246
Number of shells                            ...    114
Maximum angular momentum                    ...      2
Integral batch strategy                     ... SHARK/LIBINT Hybrid
RI-J (if used) integral strategy            ... SPLIT-RIJ (Revised 2003 algorithm where possible)
Printlevel                                  ...      1
Contraction scheme used                     ... SEGMENTED contraction
Coulomb Range Separation                    ... NOT USED
Exchange Range Separation                   ... NOT USED
Finite Nucleus Model                        ... NOT USED
Auxiliary Coulomb fitting basis             ... AVAILABLE
   # of basis functions in Aux-J            ...    796
   # of shells in Aux-J                     ...    260
   Maximum angular momentum in Aux-J        ...      4
Auxiliary J/K fitting basis                 ... NOT available
Auxiliary Correlation fitting basis         ... NOT available
Auxiliary 'external' fitting basis          ... NOT available
Integral threshold                          ...     1.000000e-10
Primitive cut-off                           ...     1.000000e-11
Primitive pair pre-selection threshold      ...     1.000000e-11

Calculating pre-screening integrals         ... done (  0.3 sec) Dimension = 114
Organizing shell pair data                  ... done (  0.1 sec)
Shell pair information
Total number of shell pairs                 ...      6555
Shell pairs after pre-screening             ...      6013
Total number of primitive shell pairs       ...     24083
Primitive shell pairs kept                  ...     15461
          la=0 lb=0:   1780 shell pairs
          la=1 lb=0:   2173 shell pairs
          la=1 lb=1:    699 shell pairs
          la=2 lb=0:    776 shell pairs
          la=2 lb=1:    492 shell pairs
          la=2 lb=2:     93 shell pairs

Calculating one electron integrals          ... done (  0.0 sec)
Calculating RI/J V-Matrix + Cholesky decomp.... done (  0.1 sec)
Calculating Nuclear repulsion               ... done (  0.0 sec) ENN=    970.401081063357 Eh

SHARK setup successfully completed in   1.5 seconds

Maximum memory used throughout the entire GTOINT-calculation: 46.5 MB
-------------------------------------------------------------------------------
                                 ORCA SCF
-------------------------------------------------------------------------------

------------
SCF SETTINGS
------------
Hamiltonian:
 Density Functional     Method          .... DFT(GTOs)
 Exchange Functional    Exchange        .... PBE
   PBE kappa parameter   XKappa         ....  0.804000
   PBE mue parameter    XMuePBE         ....  0.219520
 Correlation Functional Correlation     .... PBE
   PBE beta parameter  CBetaPBE         ....  0.066725
 LDA part of GGA corr.  LDAOpt          .... PW91-LDA
 Gradients option       PostSCFGGA      .... off
 Hybrid DFT is turned on
   Fraction HF Exchange ScalHFX         ....  0.250000
   Scaling of DF-GGA-X  ScalDFX         ....  0.750000
   Scaling of DF-GGA-C  ScalDFC         ....  1.000000
   Scaling of DF-LDA-C  ScalLDAC        ....  1.000000
   Perturbative correction              ....  0.000000
   Density functional embedding theory  .... OFF
   NL short-range parameter             ....  6.900000
 RI-approximation to the Coulomb term is turned on
   Number of AuxJ basis functions       .... 796
   RIJ-COSX (HFX calculated with COS-X)).... on


General Settings:
 Integral files         IntName         .... scf_pbe0_ad_f
 Hartree-Fock type      HFTyp           .... RHF
 Total Charge           Charge          ....    0
 Multiplicity           Mult            ....    1
 Number of Electrons    NEL             ....  104
 Basis Dimension        Dim             ....  246
 Nuclear Repulsion      ENuc            ....    970.4010810634 Eh

Convergence Acceleration:
 DIIS                   CNVDIIS         .... on
   Start iteration      DIISMaxIt       ....    12
   Startup error        DIISStart       ....  0.200000
   # of expansion vecs  DIISMaxEq       ....     5
   Bias factor          DIISBfac        ....   1.050
   Max. coefficient     DIISMaxC        ....  10.000
 Trust-Rad. Augm. Hess. CNVTRAH         .... auto
   Auto Start mean grad. ratio tolernc. ....  1.125000
   Auto Start start iteration           ....     1
   Auto Start num. interpolation iter.  ....    10
   Max. Number of Micro iterations      ....    16
   Max. Number of Macro iterations      .... Maxiter - #DIIS iter
   Number of Davidson start vectors     ....     2
   Converg. threshold I  (grad. norm)   ....   5.000e-05
   Converg. threshold II (energy diff.) ....   1.000e-06
   Grad. Scal. Fac. for Micro threshold ....   0.100
   Minimum threshold for Micro iter.    ....   0.010
   NR start threshold (gradient norm)   ....   0.001
   Initial trust radius                 ....   0.400
   Minimum AH scaling param. (alpha)    ....   1.000
   Maximum AH scaling param. (alpha)    .... 1000.000
   Orbital update algorithm             .... Taylor
   White noise on init. David. guess    .... on
   Maximum white noise                  ....   0.010
   Quad. conv. algorithm                .... NR
 SOSCF                  CNVSOSCF        .... on
   Start iteration      SOSCFMaxIt      ....   150
   Startup grad/error   SOSCFStart      ....  0.003300
 Level Shifting         CNVShift        .... on
   Level shift para.    LevelShift      ....    0.2500
   Turn off err/grad.   ShiftErr        ....    0.0010
 Zerner damping         CNVZerner       .... off
 Static damping         CNVDamp         .... on
   Fraction old density DampFac         ....    0.7000
   Max. Damping (<1)    DampMax         ....    0.9800
   Min. Damping (>=0)   DampMin         ....    0.0000
   Turn off err/grad.   DampErr         ....    0.1000
 Fernandez-Rico         CNVRico         .... off

SCF Procedure:
 Maximum # iterations   MaxIter         ....  2000
 SCF integral mode      SCFMode         .... Direct
   Integral package                     .... SHARK and LIBINT hybrid scheme
 Reset frequency        DirectResetFreq ....    20
 Integral Threshold     Thresh          ....  1.000e-10 Eh
 Primitive CutOff       TCut            ....  1.000e-11 Eh

Convergence Tolerance:
 Convergence Check Mode ConvCheckMode   .... Total+1el-Energy
 Convergence forced     ConvForced      .... 0
 Energy Change          TolE            ....  1.000e-06 Eh
 1-El. energy change                    ....  1.000e-03 Eh
 Orbital Gradient       TolG            ....  5.000e-05
 Orbital Rotation angle TolX            ....  5.000e-05
 DIIS Error             TolErr          ....  1.000e-06


Diagonalization of the overlap matrix:
Smallest eigenvalue                        ... 2.237e-04
Time for diagonalization                   ...    0.010 sec
Threshold for overlap eigenvalues          ... 1.000e-08
Number of eigenvalues below threshold      ... 0
Time for construction of square roots      ...    0.250 sec
Total time needed                          ...    0.261 sec

---------------------
INITIAL GUESS: MOREAD
---------------------
Guess MOs are being read from file: scf_pbe0_ad_f.ges
Input Geometry matches current geometry (good)
Input basis set matches current basis set (good)
MOs were renormalized
MOs were reorthogonalized (Cholesky)
                      ------------------
                      INITIAL GUESS DONE (   0.0 sec)
                      ------------------
-------------------
DFT GRID GENERATION
-------------------

General Integration Accuracy     IntAcc      ... 4.159
Radial Grid Type                 RadialGrid  ... OptM3 with GC (2021)
Angular Grid (max. ang.)         AngularGrid ... 3 (Lebedev-194)
Angular grid pruning method      GridPruning ... 4 (adaptive)
Weight generation scheme         WeightScheme... Becke
Basis function cutoff            BFCut       ... 1.0000e-10
Integration weight cutoff        WCut        ... 1.0000e-14
Angular grids for H and He will be reduced by one unit
Partially contracted basis set               ... off
Rotationally invariant grid construction     ... off

Total number of grid points                  ...    58878
Total number of batches                      ...      932
Average number of points per batch           ...       63
Average number of grid points per atom       ...     2453
Time for grid setup =    0.900 sec

--------------------
COSX GRID GENERATION
--------------------

GRIDX 1
-------
General Integration Accuracy     IntAcc      ... 3.816
Radial Grid Type                 RadialGrid  ... OptM3 with GC (2021)
Angular Grid (max. ang.)         AngularGrid ... 1 (Lebedev-50)
Angular grid pruning method      GridPruning ... 4 (adaptive)
Weight generation scheme         WeightScheme... Becke
Basis function cutoff            BFCut       ... 1.0000e-10
Integration weight cutoff        WCut        ... 1.0000e-14
Angular grids for H and He will be reduced by one unit
Partially contracted basis set               ... on
Rotationally invariant grid construction     ... off

Total number of grid points                  ...    14421
Total number of batches                      ...      236
Average number of points per batch           ...       61
Average number of grid points per atom       ...      601
UseSFitting                                  ... on

GRIDX 2
-------
General Integration Accuracy     IntAcc      ... 3.816
Radial Grid Type                 RadialGrid  ... OptM3 with GC (2021)
Angular Grid (max. ang.)         AngularGrid ... 1 (Lebedev-50)
Angular grid pruning method      GridPruning ... 4 (adaptive)
Weight generation scheme         WeightScheme... Becke
Basis function cutoff            BFCut       ... 1.0000e-10
Integration weight cutoff        WCut        ... 1.0000e-14
Angular grids for H and He will be reduced by one unit
Partially contracted basis set               ... on
Rotationally invariant grid construction     ... off

Total number of grid points                  ...    14421
Total number of batches                      ...      236
Average number of points per batch           ...       61
Average number of grid points per atom       ...      601
UseSFitting                                  ... on

GRIDX 3
-------
General Integration Accuracy     IntAcc      ... 4.020
Radial Grid Type                 RadialGrid  ... OptM3 with GC (2021)
Angular Grid (max. ang.)         AngularGrid ... 2 (Lebedev-110)
Angular grid pruning method      GridPruning ... 4 (adaptive)
Weight generation scheme         WeightScheme... Becke
Basis function cutoff            BFCut       ... 1.0000e-10
Integration weight cutoff        WCut        ... 1.0000e-14
Angular grids for H and He will be reduced by one unit
Partially contracted basis set               ... on
Rotationally invariant grid construction     ... off

Total number of grid points                  ...    31696
Total number of batches                      ...      509
Average number of points per batch           ...       62
Average number of grid points per atom       ...     1321
UseSFitting                                  ... on

Time for X-Grid setup             =    2.745 sec

--------------
SCF ITERATIONS
--------------
ITER       Energy         Delta-E        Max-DP      RMS-DP      [F,P]     Damp
               ***  Starting incremental Fock matrix formation  ***
                      *** Initiating the SOSCF procedure ***
                      *** Re-Reading the Fockian *** 
                      *** Removing any level shift *** 
ITER      Energy       Delta-E        Grad      Rot      Max-DP    RMS-DP
  0   -758.60697265 -758.6069726489  0.000003  0.000003  0.000145  0.000001
               *** Restarting incremental Fock matrix formation ***
                 **** Energy Check signals convergence ****
              ***Rediagonalizing the Fockian in SOSCF/NRSCF***

               *****************************************************
               *                     SUCCESS                       *
               *           SCF CONVERGED AFTER   1 CYCLES          *
               *****************************************************

Old exchange energy                            =    -23.282666178 Eh
New exchange energy                            =    -23.281458747 Eh
Exchange energy change after final integration =      0.001207431 Eh
Total energy after final integration           =   -758.605765213 Eh
Final COS-X integration done in                =    12.182 sec

----------------
TOTAL SCF ENERGY
----------------

Total Energy       :         -758.60576521 Eh          -20642.71233 eV

Components:
Nuclear Repulsion  :          970.40108106 Eh           26405.95587 eV
Electronic Energy  :        -1729.00684628 Eh          -47048.66820 eV
One Electron Energy:        -2972.17706206 Eh          -80877.04957 eV
Two Electron Energy:         1243.17021578 Eh           33828.38137 eV
Max COSX asymmetry :            0.00022357 Eh               0.00608 eV

Virial components:
Potential Energy   :        -1511.32931335 Eh          -41125.36139 eV
Kinetic Energy     :          752.72354814 Eh           20482.64906 eV
Virial Ratio       :            2.00781458


DFT components:
N(Alpha)           :       52.001423051649 electrons
N(Beta)            :       52.001423051649 electrons
N(Total)           :      104.002846103298 electrons
E(X)               :      -69.630913865305 Eh       
E(C)               :       -3.548090357932 Eh       
E(XC)              :      -73.179004223238 Eh       
DFET-embed. en.    :        0.000000000000 Eh       

---------------
SCF CONVERGENCE
---------------

  Last Energy change         ...    5.3678e-09  Tolerance :   1.0000e-06
  Last MAX-Density change    ...    3.1086e-15  Tolerance :   1.0000e-05
  Last RMS-Density change    ...    4.7744e-17  Tolerance :   1.0000e-06
  Last Orbital Gradient      ...    2.7046e-06  Tolerance :   5.0000e-05
  Last Orbital Rotation      ...    3.5711e-06  Tolerance :   5.0000e-05

             **** THE GBW FILE WAS UPDATED (scf_pbe0_ad_f.gbw) ****
             **** DENSITY scf_pbe0_ad_f.scfp WAS UPDATED ****
             **** ENERGY FILE WAS UPDATED (scf_pbe0_ad_f.en.tmp) ****
             **** THE GBW FILE WAS UPDATED (scf_pbe0_ad_f.gbw) ****
             **** DENSITY scf_pbe0_ad_f.scfp WAS UPDATED ****
----------------
ORBITAL ENERGIES
----------------

  NO   OCC          E(Eh)            E(eV) 
   0   2.0000     -24.796296      -674.7415 
   1   2.0000     -24.759018      -673.7271 
   2   2.0000     -24.753109      -673.5663 
   3   2.0000     -24.753098      -673.5660 
   4   2.0000     -10.312448      -280.6160 
   5   2.0000     -10.307745      -280.4880 
   6   2.0000     -10.307728      -280.4875 
   7   2.0000     -10.261188      -279.2211 
   8   2.0000     -10.261144      -279.2199 
   9   2.0000     -10.253048      -278.9996 
  10   2.0000     -10.253032      -278.9992 
  11   2.0000     -10.241560      -278.6870 
  12   2.0000      -6.841327      -186.1620 
  13   2.0000      -6.792400      -184.8306 
  14   2.0000      -1.239937       -33.7404 
  15   2.0000      -1.209500       -32.9122 
  16   2.0000      -1.203696       -32.7542 
  17   2.0000      -1.199286       -32.6342 
  18   2.0000      -0.896220       -24.3874 
  19   2.0000      -0.813243       -22.1295 
  20   2.0000      -0.789445       -21.4819 
  21   2.0000      -0.717947       -19.5363 
  22   2.0000      -0.695482       -18.9250 
  23   2.0000      -0.651800       -17.7364 
  24   2.0000      -0.628939       -17.1143 
  25   2.0000      -0.583924       -15.8894 
  26   2.0000      -0.576705       -15.6929 
  27   2.0000      -0.563285       -15.3278 
  28   2.0000      -0.540457       -14.7066 
  29   2.0000      -0.530678       -14.4405 
  30   2.0000      -0.519498       -14.1363 
  31   2.0000      -0.496786       -13.5182 
  32   2.0000      -0.494667       -13.4606 
  33   2.0000      -0.489742       -13.3265 
  34   2.0000      -0.475695       -12.9443 
  35   2.0000      -0.475321       -12.9341 
  36   2.0000      -0.472817       -12.8660 
  37   2.0000      -0.456753       -12.4289 
  38   2.0000      -0.446884       -12.1603 
  39   2.0000      -0.442611       -12.0441 
  40   2.0000      -0.430207       -11.7065 
  41   2.0000      -0.419729       -11.4214 
  42   2.0000      -0.411053       -11.1853 
  43   2.0000      -0.387878       -10.5547 
  44   2.0000      -0.385403       -10.4873 
  45   2.0000      -0.358047        -9.7430 
  46   2.0000      -0.346852        -9.4383 
  47   2.0000      -0.329825        -8.9750 
  48   2.0000      -0.325918        -8.8687 
  49   2.0000      -0.325899        -8.8682 
  50   2.0000      -0.304381        -8.2826 
  51   2.0000      -0.285767        -7.7761 
  52   0.0000      -0.066795        -1.8176 
  53   0.0000      -0.031661        -0.8615 
  54   0.0000       0.051074         1.3898 
  55   0.0000       0.074743         2.0339 
  56   0.0000       0.085567         2.3284 
  57   0.0000       0.086691         2.3590 
  58   0.0000       0.109526         2.9804 
  59   0.0000       0.119612         3.2548 
  60   0.0000       0.119755         3.2587 
  61   0.0000       0.129114         3.5134 
  62   0.0000       0.140212         3.8154 
  63   0.0000       0.149311         4.0630 
  64   0.0000       0.163227         4.4416 
  65   0.0000       0.170615         4.6427 
  66   0.0000       0.174384         4.7452 
  67   0.0000       0.183366         4.9896 
  68   0.0000       0.194522         5.2932 
  69   0.0000       0.208326         5.6688 
  70   0.0000       0.214808         5.8452 
  71   0.0000       0.220724         6.0062 
  72   0.0000       0.243700         6.6314 
  73   0.0000       0.249431         6.7874 
  74   0.0000       0.257133         6.9969 
  75   0.0000       0.276740         7.5305 
  76   0.0000       0.285616         7.7720 
  77   0.0000       0.292210         7.9514 
  78   0.0000       0.319750         8.7008 
  79   0.0000       0.323199         8.7947 
  80   0.0000       0.347229         9.4486 
  81   0.0000       0.354526         9.6472 
  82   0.0000       0.378369        10.2960 
  83   0.0000       0.417233        11.3535 
  84   0.0000       0.427383        11.6297 
  85   0.0000       0.453925        12.3519 
  86   0.0000       0.464443        12.6381 
  87   0.0000       0.464471        12.6389 
  88   0.0000       0.512577        13.9479 
  89   0.0000       0.518308        14.1039 
  90   0.0000       0.520429        14.1616 
  91   0.0000       0.545918        14.8552 
  92   0.0000       0.549057        14.9406 
  93   0.0000       0.573884        15.6162 
  94   0.0000       0.581214        15.8156 
  95   0.0000       0.589837        16.0503 
  96   0.0000       0.595629        16.2079 
  97   0.0000       0.605162        16.4673 
  98   0.0000       0.626023        17.0350 
  99   0.0000       0.633723        17.2445 
 100   0.0000       0.643218        17.5029 
 101   0.0000       0.651592        17.7307 
 102   0.0000       0.659458        17.9448 
 103   0.0000       0.666827        18.1453 
 104   0.0000       0.670999        18.2588 
 105   0.0000       0.675924        18.3928 
 106   0.0000       0.692304        18.8386 
 107   0.0000       0.696410        18.9503 
 108   0.0000       0.698530        19.0080 
 109   0.0000       0.702583        19.1182 
 110   0.0000       0.712951        19.4004 
 111   0.0000       0.721583        19.6353 
 112   0.0000       0.737283        20.0625 
 113   0.0000       0.750206        20.4141 
 114   0.0000       0.754365        20.5273 
 115   0.0000       0.770664        20.9708 
 116   0.0000       0.772443        21.0192 
 117   0.0000       0.776094        21.1186 
 118   0.0000       0.861665        23.4471 
 119   0.0000       0.862959        23.4823 
 120   0.0000       0.915325        24.9073 
 121   0.0000       0.956020        26.0146 
 122   0.0000       0.986922        26.8555 
 123   0.0000       1.008329        27.4380 
 124   0.0000       1.034378        28.1469 
 125   0.0000       1.050253        28.5788 
 126   0.0000       1.070312        29.1247 
 127   0.0000       1.095848        29.8195 
 128   0.0000       1.116782        30.3892 
 129   0.0000       1.119800        30.4713 
 130   0.0000       1.139379        31.0041 
 131   0.0000       1.192964        32.4622 
 132   0.0000       1.215355        33.0715 
 133   0.0000       1.224133        33.3103 
 134   0.0000       1.231648        33.5149 
 135   0.0000       1.257056        34.2062 
 136   0.0000       1.261460        34.3261 
 137   0.0000       1.303867        35.4800 
 138   0.0000       1.304413        35.4949 
 139   0.0000       1.324656        36.0457 
 140   0.0000       1.325490        36.0684 
 141   0.0000       1.339982        36.4628 
 142   0.0000       1.362519        37.0760 
 143   0.0000       1.385972        37.7142 
 144   0.0000       1.395571        37.9754 
 145   0.0000       1.419275        38.6204 
 146   0.0000       1.429962        38.9112 
 147   0.0000       1.448685        39.4207 
 148   0.0000       1.472203        40.0607 
 149   0.0000       1.482405        40.3383 
 150   0.0000       1.527532        41.5663 
 151   0.0000       1.558617        42.4121 
 152   0.0000       1.578823        42.9620 
 153   0.0000       1.591002        43.2934 
 154   0.0000       1.593172        43.3524 
 155   0.0000       1.619594        44.0714 
 156   0.0000       1.662097        45.2280 
 157   0.0000       1.664180        45.2846 
 158   0.0000       1.681080        45.7445 
 159   0.0000       1.702913        46.3386 
 160   0.0000       1.714999        46.6675 
 161   0.0000       1.720276        46.8111 
 162   0.0000       1.742947        47.4280 
 163   0.0000       1.745683        47.5025 
 164   0.0000       1.783366        48.5279 
 165   0.0000       1.789538        48.6958 
 166   0.0000       1.797896        48.9232 
 167   0.0000       1.803436        49.0740 
 168   0.0000       1.818681        49.4888 
 169   0.0000       1.818855        49.4936 
 170   0.0000       1.838112        50.0176 
 171   0.0000       1.852431        50.4072 
 172   0.0000       1.862599        50.6839 
 173   0.0000       1.882399        51.2227 
 174   0.0000       1.887921        51.3729 
 175   0.0000       1.902566        51.7715 
 176   0.0000       1.908492        51.9327 
 177   0.0000       1.926727        52.4289 
 178   0.0000       1.936972        52.7077 
 179   0.0000       1.943684        52.8903 
 180   0.0000       1.952539        53.1313 
 181   0.0000       1.955745        53.2185 
 182   0.0000       1.974604        53.7317 
 183   0.0000       1.982857        53.9563 
 184   0.0000       1.998064        54.3701 
 185   0.0000       2.025234        55.1094 
 186   0.0000       2.037953        55.4555 
 187   0.0000       2.076600        56.5072 
 188   0.0000       2.087448        56.8024 
 189   0.0000       2.113006        57.4978 
 190   0.0000       2.114034        57.5258 
 191   0.0000       2.118471        57.6465 
 192   0.0000       2.137391        58.1614 
 193   0.0000       2.188235        59.5449 
 194   0.0000       2.203589        59.9627 
 195   0.0000       2.219889        60.4062 
 196   0.0000       2.223762        60.5116 
 197   0.0000       2.261704        61.5441 
 198   0.0000       2.263491        61.5927 
 199   0.0000       2.276390        61.9437 
 200   0.0000       2.371065        64.5200 
 201   0.0000       2.394339        65.1533 
 202   0.0000       2.403974        65.4155 
 203   0.0000       2.422154        65.9102 
 204   0.0000       2.445447        66.5440 
 205   0.0000       2.475084        67.3504 
 206   0.0000       2.484882        67.6171 
 207   0.0000       2.532555        68.9143 
 208   0.0000       2.549893        69.3861 
 209   0.0000       2.585109        70.3444 
 210   0.0000       2.594043        70.5875 
 211   0.0000       2.609810        71.0165 
 212   0.0000       2.655156        72.2505 
 213   0.0000       2.722149        74.0734 
 214   0.0000       2.775724        75.5313 
 215   0.0000       2.798219        76.1434 
 216   0.0000       2.890746        78.6612 
 217   0.0000       2.891948        78.6939 
 218   0.0000       2.934648        79.8558 
 219   0.0000       2.958244        80.4979 
 220   0.0000       2.971379        80.8553 
 221   0.0000       2.998801        81.6015 
 222   0.0000       3.031645        82.4953 
 223   0.0000       3.042690        82.7958 
 224   0.0000       3.061597        83.3103 
 225   0.0000       3.083650        83.9104 
 226   0.0000       3.090827        84.1057 
 227   0.0000       3.106337        84.5277 
 228   0.0000       3.132099        85.2288 
 229   0.0000       3.149987        85.7155 
 230   0.0000       3.156341        85.8884 
 231   0.0000       3.158726        85.9533 
 232   0.0000       3.161127        86.0186 
 233   0.0000       3.176598        86.4396 
 234   0.0000       3.344979        91.0215 
 235   0.0000       3.375156        91.8427 
 236   0.0000       3.382245        92.0356 
 237   0.0000       3.391769        92.2947 
 238   0.0000       3.397888        92.4612 
 239   0.0000       3.421837        93.1129 
 240   0.0000       3.428993        93.3076 
 241   0.0000       3.496660        95.1490 
 242   0.0000       3.813518       103.7711 
 243   0.0000       3.820113       103.9506 
 244   0.0000       3.838129       104.4408 
 245   0.0000       3.878383       105.5362 

                    ********************************
                    * MULLIKEN POPULATION ANALYSIS *
                    ********************************

-----------------------
MULLIKEN ATOMIC CHARGES
-----------------------
   0 C :    0.049746
   1 C :   -0.212344
   2 C :   -0.232521
   3 C :    0.049751
   4 C :    0.249799
   5 B :    0.196857
   6 C :    0.289803
   7 C :   -0.232578
   8 B :   -0.019616
   9 C :    0.249808
  10 H :    0.054113
  11 H :    0.048460
  12 H :    0.050231
  13 H :    0.040279
  14 F :   -0.271699
  15 H :    0.052403
  16 F :   -0.270507
  17 H :    0.040285
  18 H :    0.047911
  19 F :   -0.270502
  20 H :    0.054115
  21 F :   -0.062483
  22 H :    0.050226
  23 H :    0.048465
Sum of atomic charges:   -0.0000000

--------------------------------
MULLIKEN REDUCED ORBITAL CHARGES
--------------------------------
  0 C s       :     2.971785  s :     2.971785
      pz      :     0.970499  p :     2.942002
      px      :     0.967616
      py      :     1.003886
      dz2     :     0.003574  d :     0.036468
      dxz     :     0.009780
      dyz     :     0.010260
      dx2y2   :     0.003528
      dxy     :     0.009326
  1 C s       :     3.169866  s :     3.169866
      pz      :     1.037747  p :     3.008069
      px      :     0.985128
      py      :     0.985194
      dz2     :     0.004082  d :     0.034409
      dxz     :     0.008163
      dyz     :     0.008161
      dx2y2   :     0.003778
      dxy     :     0.010225
  2 C s       :     3.180856  s :     3.180856
      pz      :     1.004303  p :     3.009222
      px      :     0.990132
      py      :     1.014787
      dz2     :     0.004143  d :     0.042443
      dxz     :     0.010127
      dyz     :     0.012316
      dx2y2   :     0.005344
      dxy     :     0.010513
  3 C s       :     2.971824  s :     2.971824
      pz      :     0.970484  p :     2.941958
      px      :     1.003828
      py      :     0.967646
      dz2     :     0.003575  d :     0.036468
      dxz     :     0.010260
      dyz     :     0.009780
      dx2y2   :     0.003527
      dxy     :     0.009327
  4 C s       :     3.040859  s :     3.040859
      pz      :     0.858875  p :     2.641027
      px      :     0.864220
      py      :     0.917932
      dz2     :     0.009579  d :     0.068315
      dxz     :     0.019342
      dyz     :     0.014124
      dx2y2   :     0.008559
      dxy     :     0.016711
  5 B s       :     2.896677  s :     2.896677
      pz      :     0.640498  p :     1.774297
      px      :     0.566600
      py      :     0.567198
      dz2     :     0.044219  d :     0.132169
      dxz     :     0.038244
      dyz     :     0.038264
      dx2y2   :     0.005249
      dxy     :     0.006193
  6 C s       :     3.033254  s :     3.033254
      pz      :     0.845421  p :     2.600600
      px      :     0.877702
      py      :     0.877478
      dz2     :     0.010635  d :     0.076342
      dxz     :     0.019300
      dyz     :     0.019311
      dx2y2   :     0.008848
      dxy     :     0.018248
  7 C s       :     3.180921  s :     3.180921
      pz      :     1.004307  p :     3.009212
      px      :     1.014869
      py      :     0.990037
      dz2     :     0.004143  d :     0.042444
      dxz     :     0.012318
      dyz     :     0.010126
      dx2y2   :     0.005344
      dxy     :     0.010513
  8 B s       :     3.018775  s :     3.018775
      pz      :     0.750338  p :     1.942658
      px      :     0.596435
      py      :     0.595885
      dz2     :     0.008596  d :     0.058183
      dxz     :     0.013806
      dyz     :     0.013793
      dx2y2   :     0.006572
      dxy     :     0.015416
  9 C s       :     3.040837  s :     3.040837
      pz      :     0.858882  p :     2.641041
      px      :     0.918236
      py      :     0.863923
      dz2     :     0.009580  d :     0.068315
      dxz     :     0.014117
      dyz     :     0.019348
      dx2y2   :     0.008564
      dxy     :     0.016706
 10 H s       :     0.924139  s :     0.924139
      pz      :     0.007636  p :     0.021748
      px      :     0.006874
      py      :     0.007237
 11 H s       :     0.928648  s :     0.928648
      pz      :     0.007487  p :     0.022892
      px      :     0.008048
      py      :     0.007358
 12 H s       :     0.926442  s :     0.926442
      pz      :     0.008335  p :     0.023328
      px      :     0.007581
      py      :     0.007411
 13 H s       :     0.937217  s :     0.937217
      pz      :     0.006933  p :     0.022504
      px      :     0.007810
      py      :     0.007761
 14 F s       :     3.920110  s :     3.920110
      pz      :     1.763826  p :     5.344408
      px      :     1.790443
      py      :     1.790139
      dz2     :     0.001155  d :     0.007180
      dxz     :     0.001811
      dyz     :     0.001814
      dx2y2   :     0.000890
      dxy     :     0.001510
 15 H s       :     0.925816  s :     0.925816
      pz      :     0.006456  p :     0.021782
      px      :     0.007660
      py      :     0.007666
 16 F s       :     3.926803  s :     3.926803
      pz      :     1.742584  p :     5.336457
      px      :     1.819912
      py      :     1.773960
      dz2     :     0.001106  d :     0.007247
      dxz     :     0.001612
      dyz     :     0.002028
      dx2y2   :     0.000985
      dxy     :     0.001518
 17 H s       :     0.937211  s :     0.937211
      pz      :     0.006932  p :     0.022504
      px      :     0.007772
      py      :     0.007800
 18 H s       :     0.928589  s :     0.928589
      pz      :     0.007198  p :     0.023500
      px      :     0.008147
      py      :     0.008155
 19 F s       :     3.926798  s :     3.926798
      pz      :     1.742591  p :     5.336457
      px      :     1.774196
      py      :     1.819670
      dz2     :     0.001106  d :     0.007247
      dxz     :     0.002026
      dyz     :     0.001614
      dx2y2   :     0.000984
      dxy     :     0.001518
 20 H s       :     0.924138  s :     0.924138
      pz      :     0.007638  p :     0.021748
      px      :     0.007243
      py      :     0.006866
 21 F s       :     3.834559  s :     3.834559
      pz      :     1.562249  p :     5.221248
      px      :     1.829451
      py      :     1.829548
      dz2     :     0.003171  d :     0.006676
      dxz     :     0.001706
      dyz     :     0.001706
      dx2y2   :     0.000042
      dxy     :     0.000051
 22 H s       :     0.926447  s :     0.926447
      pz      :     0.008335  p :     0.023328
      px      :     0.007403
      py      :     0.007589
 23 H s       :     0.928643  s :     0.928643
      pz      :     0.007488  p :     0.022892
      px      :     0.007364
      py      :     0.008040


                     *******************************
                     * LOEWDIN POPULATION ANALYSIS *
                     *******************************

----------------------
LOEWDIN ATOMIC CHARGES
----------------------
   0 C :   -0.012364
   1 C :   -0.078496
   2 C :   -0.047022
   3 C :   -0.012362
   4 C :    0.091742
   5 B :   -0.055727
   6 C :    0.118523
   7 C :   -0.047026
   8 B :   -0.083872
   9 C :    0.091743
  10 H :    0.041528
  11 H :    0.032810
  12 H :    0.037748
  13 H :    0.030370
  14 F :   -0.131929
  15 H :    0.024867
  16 F :   -0.129628
  17 H :    0.030370
  18 H :    0.043433
  19 F :   -0.129628
  20 H :    0.041527
  21 F :    0.072833
  22 H :    0.037748
  23 H :    0.032809

-------------------------------
LOEWDIN REDUCED ORBITAL CHARGES
-------------------------------
  0 C s       :     2.825414  s :     2.825414
      pz      :     1.029325  p :     3.095572
      px      :     1.037162
      py      :     1.029085
      dz2     :     0.007193  d :     0.091377
      dxz     :     0.025176
      dyz     :     0.026710
      dx2y2   :     0.006817
      dxy     :     0.025481
  1 C s       :     2.846883  s :     2.846883
      pz      :     1.063652  p :     3.146656
      px      :     1.041462
      py      :     1.041542
      dz2     :     0.007605  d :     0.084957
      dxz     :     0.021912
      dyz     :     0.021910
      dx2y2   :     0.007368
      dxy     :     0.026162
  2 C s       :     2.850160  s :     2.850160
      pz      :     1.033445  p :     3.094649
      px      :     1.031594
      py      :     1.029610
      dz2     :     0.007710  d :     0.102213
      dxz     :     0.026639
      dyz     :     0.030854
      dx2y2   :     0.009549
      dxy     :     0.027460
  3 C s       :     2.825415  s :     2.825415
      pz      :     1.029317  p :     3.095570
      px      :     1.029077
      py      :     1.037176
      dz2     :     0.007195  d :     0.091378
      dxz     :     0.026708
      dyz     :     0.025177
      dx2y2   :     0.006816
      dxy     :     0.025482
  4 C s       :     2.855739  s :     2.855739
      pz      :     0.941850  p :     2.895680
      px      :     0.962124
      py      :     0.991706
      dz2     :     0.019115  d :     0.156839
      dxz     :     0.045802
      dyz     :     0.034374
      dx2y2   :     0.016485
      dxy     :     0.041063
  5 B s       :     2.717283  s :     2.717283
      pz      :     0.739963  p :     2.005397
      px      :     0.632387
      py      :     0.633047
      dz2     :     0.102429  d :     0.333047
      dxz     :     0.100673
      dyz     :     0.100742
      dx2y2   :     0.014645
      dxy     :     0.014558
  6 C s       :     2.852477  s :     2.852477
      pz      :     0.940048  p :     2.853708
      px      :     0.956931
      py      :     0.956729
      dz2     :     0.020526  d :     0.175291
      dxz     :     0.046710
      dyz     :     0.046726
      dx2y2   :     0.017252
      dxy     :     0.044077
  7 C s       :     2.850160  s :     2.850160
      pz      :     1.033450  p :     3.094652
      px      :     1.029653
      py      :     1.031548
      dz2     :     0.007710  d :     0.102213
      dxz     :     0.030858
      dyz     :     0.026635
      dx2y2   :     0.009551
      dxy     :     0.027459
  8 B s       :     2.767209  s :     2.767209
      pz      :     0.817498  p :     2.163774
      px      :     0.673414
      py      :     0.672862
      dz2     :     0.020460  d :     0.152888
      dxz     :     0.038330
      dyz     :     0.038295
      dx2y2   :     0.015020
      dxy     :     0.040783
  9 C s       :     2.855738  s :     2.855738
      pz      :     0.941860  p :     2.895680
      px      :     0.991960
      py      :     0.961860
      dz2     :     0.019117  d :     0.156839
      dxz     :     0.034360
      dyz     :     0.045813
      dx2y2   :     0.016499
      dxy     :     0.041049
 10 H s       :     0.887629  s :     0.887629
      pz      :     0.025155  p :     0.070843
      px      :     0.021952
      py      :     0.023737
 11 H s       :     0.898171  s :     0.898171
      pz      :     0.022254  p :     0.069019
      px      :     0.024314
      py      :     0.022451
 12 H s       :     0.891892  s :     0.891892
      pz      :     0.024854  p :     0.070360
      px      :     0.023004
      py      :     0.022501
 13 H s       :     0.901091  s :     0.901091
      pz      :     0.021431  p :     0.068540
      px      :     0.022831
      py      :     0.024278
 14 F s       :     3.742127  s :     3.742127
      pz      :     1.771030  p :     5.378711
      px      :     1.803976
      py      :     1.803705
      dz2     :     0.001661  d :     0.011090
      dxz     :     0.002842
      dyz     :     0.002847
      dx2y2   :     0.001358
      dxy     :     0.002383
 15 H s       :     0.904567  s :     0.904567
      pz      :     0.021357  p :     0.070566
      px      :     0.024594
      py      :     0.024614
 16 F s       :     3.741619  s :     3.741619
      pz      :     1.761375  p :     5.376901
      px      :     1.835560
      py      :     1.779967
      dz2     :     0.001633  d :     0.011107
      dxz     :     0.002544
      dyz     :     0.003196
      dx2y2   :     0.001362
      dxy     :     0.002373
 17 H s       :     0.901090  s :     0.901090
      pz      :     0.021427  p :     0.068540
      px      :     0.024307
      py      :     0.022806
 18 H s       :     0.884649  s :     0.884649
      pz      :     0.021899  p :     0.071918
      px      :     0.024998
      py      :     0.025020
 19 F s       :     3.741620  s :     3.741620
      pz      :     1.761382  p :     5.376901
      px      :     1.780184
      py      :     1.835335
      dz2     :     0.001633  d :     0.011107
      dxz     :     0.003193
      dyz     :     0.002547
      dx2y2   :     0.001361
      dxy     :     0.002373
 20 H s       :     0.887630  s :     0.887630
      pz      :     0.025160  p :     0.070843
      px      :     0.023754
      py      :     0.021929
 21 F s       :     3.649521  s :     3.649521
      pz      :     1.657427  p :     5.267914
      px      :     1.805186
      py      :     1.805301
      dz2     :     0.005410  d :     0.009732
      dxz     :     0.002106
      dyz     :     0.002108
      dx2y2   :     0.000028
      dxy     :     0.000079
 22 H s       :     0.891892  s :     0.891892
      pz      :     0.024854  p :     0.070360
      px      :     0.022479
      py      :     0.023026
 23 H s       :     0.898172  s :     0.898172
      pz      :     0.022259  p :     0.069019
      px      :     0.022468
      py      :     0.024292


                      *****************************
                      * MAYER POPULATION ANALYSIS *
                      *****************************

  NA   - Mulliken gross atomic population
  ZA   - Total nuclear charge
  QA   - Mulliken gross atomic charge
  VA   - Mayer's total valence
  BVA  - Mayer's bonded valence
  FA   - Mayer's free valence

  ATOM       NA         ZA         QA         VA         BVA        FA
  0 C      5.9503     6.0000     0.0497     3.9534     3.9534    -0.0000
  1 C      6.2123     6.0000    -0.2123     3.9035     3.9035    -0.0000
  2 C      6.2325     6.0000    -0.2325     3.9437     3.9437    -0.0000
  3 C      5.9502     6.0000     0.0498     3.9533     3.9533     0.0000
  4 C      5.7502     6.0000     0.2498     3.8871     3.8871    -0.0000
  5 B      4.8031     5.0000     0.1969     3.5246     3.5246    -0.0000
  6 C      5.7102     6.0000     0.2898     3.9124     3.9124    -0.0000
  7 C      6.2326     6.0000    -0.2326     3.9437     3.9437    -0.0000
  8 B      5.0196     5.0000    -0.0196     3.3237     3.3237    -0.0000
  9 C      5.7502     6.0000     0.2498     3.8871     3.8871    -0.0000
 10 H      0.9459     1.0000     0.0541     0.9844     0.9844     0.0000
 11 H      0.9515     1.0000     0.0485     0.9758     0.9758    -0.0000
 12 H      0.9498     1.0000     0.0502     0.9935     0.9935     0.0000
 13 H      0.9597     1.0000     0.0403     0.9737     0.9737     0.0000
 14 F      9.2717     9.0000    -0.2717     1.0591     1.0591     0.0000
 15 H      0.9476     1.0000     0.0524     1.0140     1.0140    -0.0000
 16 F      9.2705     9.0000    -0.2705     1.0586     1.0586    -0.0000
 17 H      0.9597     1.0000     0.0403     0.9737     0.9737    -0.0000
 18 H      0.9521     1.0000     0.0479     0.9790     0.9790    -0.0000
 19 F      9.2705     9.0000    -0.2705     1.0586     1.0586     0.0000
 20 H      0.9459     1.0000     0.0541     0.9844     0.9844     0.0000
 21 F      9.0625     9.0000    -0.0625     1.4676     1.4676     0.0000
 22 H      0.9498     1.0000     0.0502     0.9935     0.9935    -0.0000
 23 H      0.9515     1.0000     0.0485     0.9758     0.9758    -0.0000

  Mayer bond orders larger than 0.100000
B(  0-C ,  1-C ) :   1.0336 B(  0-C ,  2-C ) :   1.0169 B(  0-C , 22-H ) :   0.9162 
B(  0-C , 23-H ) :   0.9345 B(  1-C ,  3-C ) :   1.0336 B(  1-C ,  5-B ) :   0.8828 
B(  1-C , 18-H ) :   0.9100 B(  2-C ,  4-C ) :   0.9504 B(  2-C ,  6-C ) :   0.9984 
B(  2-C , 10-H ) :   0.9013 B(  3-C ,  7-C ) :   1.0169 B(  3-C , 11-H ) :   0.9345 
B(  3-C , 12-H ) :   0.9162 B(  4-C ,  8-B ) :   1.0484 B(  4-C , 13-H ) :   0.9231 
B(  4-C , 19-F ) :   0.9041 B(  5-B ,  8-B ) :   0.9267 B(  5-B , 21-F ) :   1.5146 
B(  6-C ,  7-C ) :   0.9984 B(  6-C , 14-F ) :   0.9621 B(  6-C , 15-H ) :   0.9448 
B(  7-C ,  9-C ) :   0.9504 B(  7-C , 20-H ) :   0.9014 B(  8-B ,  9-C ) :   1.0484 
B(  9-C , 16-F ) :   0.9041 B(  9-C , 17-H ) :   0.9231 

-------
TIMINGS
-------

Total SCF time: 0 days 0 hours 0 min 34 sec 

Total time                  ....      34.297 sec
Sum of individual times     ....      33.638 sec  ( 98.1%)

Fock matrix formation       ....      29.609 sec  ( 86.3%)
  Split-RI-J                ....       3.330 sec  ( 11.2% of F)
  Chain of spheres X        ....      23.532 sec  ( 79.5% of F)
  XC integration            ....       2.473 sec  (  8.4% of F)
    Basis function eval.    ....       0.834 sec  ( 33.7% of XC)
    Density eval.           ....       0.646 sec  ( 26.1% of XC)
    XC-Functional eval.     ....       0.319 sec  ( 12.9% of XC)
    XC-Potential eval.      ....       0.618 sec  ( 25.0% of XC)
Diagonalization             ....       0.013 sec  (  0.0%)
Density matrix formation    ....       0.004 sec  (  0.0%)
Population analysis         ....       0.340 sec  (  1.0%)
Initial guess               ....       0.015 sec  (  0.0%)
Orbital Transformation      ....       0.000 sec  (  0.0%)
Orbital Orthonormalization  ....       0.011 sec  (  0.0%)
DIIS solution               ....       0.003 sec  (  0.0%)
SOSCF solution              ....       0.010 sec  (  0.0%)
Grid generation             ....       3.644 sec  ( 10.6%)

Maximum memory used throughout the entire SCF-calculation: 100.2 MB


-------------------------------------------------------------------------------
                          DFT DISPERSION CORRECTION                            
                                                                               
                              DFTD3 V3.1  Rev 1                                
                          USING Becke-Johnson damping                          
-------------------------------------------------------------------------------
The PBE0 functional is recognized
Using three-body term ABC
Active option DFTDOPT                   ...         4   

molecular C6(AA) [au] = 5326.314023 


            DFT-D V3
 parameters
 s6 scaling factor         :     1.0000 
 a1 scaling factor         :     0.4145 
 s8 scaling factor         :     1.2177 
 a2 scaling factor         :     4.8593 
 Damping factor alpha9(ATM):    16.0000 
 ad hoc parameters k1-k3   :    16.0000     1.3333    -4.0000 

 Edisp/kcal,au: -16.631129449549  -0.026503388973 
 E6   /kcal   : -10.419729680 
 E8   /kcal   :  -6.355899979 
 E6(ABC)      :   0.144500210 
 % E8         :  38.216887184 
 % E6(ABC)    :  -0.868853860 

-------------------------   ----------------
Dispersion correction           -0.026503389
-------------------------   ----------------


-------------------------   --------------------
FINAL SINGLE POINT ENERGY      -758.632268601864
-------------------------   --------------------


                            ***************************************
                            *     ORCA property calculations      *
                            ***************************************

                                    ---------------------
                                    Active property flags
                                    ---------------------
   (+) Dipole Moment


------------------------------------------------------------------------------
                       ORCA ELECTRIC PROPERTIES CALCULATION
------------------------------------------------------------------------------

Dipole Moment Calculation                       ... on
Quadrupole Moment Calculation                   ... off
Polarizability Calculation                      ... off
GBWName                                         ... scf_pbe0_ad_f.gbw
Electron density file                           ... scf_pbe0_ad_f.scfp
The origin for moment calculation is the CENTER OF MASS  = (28.731771, 24.569965 28.127988)

-------------
DIPOLE MOMENT
-------------
                                X             Y             Z
Electronic contribution:      6.88850      -6.89616       3.80844
Nuclear contribution   :     -7.42102       7.42917      -3.17501
                        -----------------------------------------
Total Dipole Moment    :     -0.53252       0.53301       0.63343
                        -----------------------------------------
Magnitude (a.u.)       :      0.98433
Magnitude (Debye)      :      2.50197



--------------------
Rotational spectrum 
--------------------
 
Rotational constants in cm-1:     0.029723     0.023461     0.020347 
Rotational constants in MHz :   891.085330   703.335189   609.997197 

 Dipole components along the rotational axes: 
x,y,z [a.u.] :     0.838724     0.515215    -0.000011 
x,y,z [Debye]:     2.131867     1.309573    -0.000028 

 

Timings for individual modules:

Sum of individual times         ...       36.160 sec (=   0.603 min)
GTO integral calculation        ...        1.693 sec (=   0.028 min)   4.7 %
SCF iterations                  ...       34.467 sec (=   0.574 min)  95.3 %
                             ****ORCA TERMINATED NORMALLY****
TOTAL RUN TIME: 0 days 0 hours 0 minutes 37 seconds 732 msec
