 vasp.5.4.4.18Apr17-6-g9f103f2a35 (build May 14 2019 14:37:47) complex          
  
 executed on             LinuxIFC date 2021.12.27  17:17:27
 running on    3 total cores
 distrk:  each k-point on    3 cores,    1 groups
 distr:  one band on NCORES_PER_BAND=   1 cores,    3 groups


--------------------------------------------------------------------------------------------------------


 INCAR:
 POTCAR:    PAW_PBE Co 02Aug2007                  
 POTCAR:    PAW_PBE Fe 06Sep2000                  
 POTCAR:    PAW_PBE Co 02Aug2007                  
   VRHFIN =Co: d8 s1                                                            
   LEXCH  = PE                                                                  
   EATOM  =   813.3670 eV,   59.7808 Ry                                         
                                                                                
   TITEL  = PAW_PBE Co 02Aug2007                                                
   LULTRA =        F    use ultrasoft PP ?                                      
   IUNSCR =        1    unscreen: 0-lin 1-nonlin 2-no                           
   RPACOR =    2.000    partial core radius                                     
   POMASS =   58.933; ZVAL   =    9.000    mass and valenz                      
   RCORE  =    2.300    outmost cutoff radius                                   
   RWIGS  =    2.460; RWIGS  =    1.302    wigner-seitz radius (au A)           
   ENMAX  =  267.968; ENMIN  =  200.976 eV                                      
   RCLOC  =    1.203    cutoff for local pot                                    
   LCOR   =        T    correct aug charges                                     
   LPAW   =        T    paw PP                                                  
   EAUG   =  477.818                                                            
   DEXC   =    0.000                                                            
   RMAX   =    2.360    core radius for proj-oper                               
   RAUG   =    1.300    factor for augmentation sphere                          
   RDEP   =    2.393    radius for radial grids                                 
   RDEPT  =    1.864    core radius for aug-charge                              
                                                                                
   Atomic configuration                                                         
    9 entries                                                                   
     n  l   j            E        occ.                                          
     1  0  0.50     -7587.6674   2.0000                                         
     2  0  0.50      -893.6084   2.0000                                         
     2  1  1.50      -764.5805   6.0000                                         
     3  0  0.50       -97.5973   2.0000                                         
     3  1  1.50       -60.9648   6.0000                                         
     3  2  2.50        -4.2382   8.0000                                         
     4  0  0.50        -4.3746   1.0000                                         
     4  1  1.50        -4.0817   0.0000                                         
     4  3  2.50        -1.3606   0.0000                                         
   Description                                                                  
     l       E           TYP  RCUT    TYP  RCUT                                 
     2     -4.2382362     23  2.300                                             
     2     -5.5988188     23  2.300                                             
     0     -4.3745797     23  2.300                                             
     0      5.7660125     23  2.300                                             
     1     -2.7211652     23  2.300                                             
     1     16.9860234     23  2.300                                             
  local pseudopotential read in
  partial core-charges read in
  partial kinetic energy density read in
  atomic valenz-charges read in
  non local Contribution for L=           2  read in
    real space projection operators read in
  non local Contribution for L=           2  read in
    real space projection operators read in
  non local Contribution for L=           0  read in
    real space projection operators read in
  non local Contribution for L=           0  read in
    real space projection operators read in
  non local Contribution for L=           1  read in
    real space projection operators read in
  non local Contribution for L=           1  read in
    real space projection operators read in
    PAW grid and wavefunctions read in
 
   number of l-projection  operators is LMAX  =           6
   number of lm-projection operators is LMMAX =          18
 
 POTCAR:    PAW_PBE Fe 06Sep2000                  
   VRHFIN =Fe:  d7 s1                                                           
   LEXCH  = PE                                                                  
   EATOM  =   594.3153 eV,   43.6809 Ry                                         
                                                                                
   TITEL  = PAW_PBE Fe 06Sep2000                                                
   LULTRA =        F    use ultrasoft PP ?                                      
   IUNSCR =        1    unscreen: 0-lin 1-nonlin 2-no                           
   RPACOR =    2.000    partial core radius                                     
   POMASS =   55.847; ZVAL   =    8.000    mass and valenz                      
   RCORE  =    2.300    outmost cutoff radius                                   
   RWIGS  =    2.460; RWIGS  =    1.302    wigner-seitz radius (au A)           
   ENMAX  =  267.882; ENMIN  =  200.911 eV                                      
   RCLOC  =    1.701    cutoff for local pot                                    
   LCOR   =        T    correct aug charges                                     
   LPAW   =        T    paw PP                                                  
   EAUG   =  511.368                                                            
   DEXC   =    0.000                                                            
   RMAX   =    2.356    core radius for proj-oper                               
   RAUG   =    1.300    factor for augmentation sphere                          
   RDEP   =    2.442    radius for radial grids                                 
   RDEPT  =    1.890    core radius for aug-charge                              
                                                                                
   Atomic configuration                                                         
    9 entries                                                                   
     n  l   j            E        occ.                                          
     1  0  0.50     -6993.8440   2.0000                                         
     2  0  0.50      -814.6047   2.0000                                         
     2  1  1.50      -693.3689   6.0000                                         
     3  0  0.50       -89.4732   2.0000                                         
     3  1  1.50       -55.6373   6.0000                                         
     3  2  2.50        -3.8151   7.0000                                         
     4  0  0.50        -4.2551   1.0000                                         
     4  1  1.50        -3.4015   0.0000                                         
     4  3  2.50        -1.3606   0.0000                                         
   Description                                                                  
     l       E           TYP  RCUT    TYP  RCUT                                 
     2     -3.8151135     23  2.300                                             
     2     -5.1756961     23  2.300                                             
     0     -4.2550963     23  2.300                                             
     0      7.2035603     23  2.300                                             
     1     -2.7211652     23  2.300                                             
     1     18.4316424     23  2.300                                             
  local pseudopotential read in
  partial core-charges read in
  partial kinetic energy density read in
  atomic valenz-charges read in
  non local Contribution for L=           2  read in
    real space projection operators read in
  non local Contribution for L=           2  read in
    real space projection operators read in
  non local Contribution for L=           0  read in
    real space projection operators read in
  non local Contribution for L=           0  read in
    real space projection operators read in
  non local Contribution for L=           1  read in
    real space projection operators read in
  non local Contribution for L=           1  read in
    real space projection operators read in
    PAW grid and wavefunctions read in
 
   number of l-projection  operators is LMAX  =           6
   number of lm-projection operators is LMMAX =          18
 
  PAW_PBE Co 02Aug2007                  :
 energy of atom  1       EATOM= -813.3670
 kinetic energy error for atom=    0.0028 (will be added to EATOM!!)
  PAW_PBE Fe 06Sep2000                  :
 energy of atom  2       EATOM= -594.3153
 kinetic energy error for atom=    0.0026 (will be added to EATOM!!)
 
 
 POSCAR: Co Fe                                   
  positions in direct lattice
  No initial velocities read in
 exchange correlation table for  LEXCH =        8
   RHO(1)=    0.500       N(1)  =     2000
   RHO(2)=  100.500       N(2)  =     4000
 


--------------------------------------------------------------------------------------------------------


 ion  position               nearest neighbor table
   1  0.250  0.250  0.250-   3 2.34   3 2.34   3 2.34   3 2.34   2 2.71   2 2.71   2 2.71   2 2.71
                             2 2.71   2 2.71
   2  0.750  0.750  0.750-   3 2.34   3 2.34   3 2.34   3 2.34   1 2.71   1 2.71   1 2.71   1 2.71
                             1 2.71   1 2.71
   3  0.000  0.000  0.000-   2 2.34   1 2.34   2 2.34   1 2.34   2 2.34   1 2.34   1 2.34   2 2.34

 
  LATTYP: Found a face centered cubic cell.
 ALAT       =     5.4146342068
  
  Lattice vectors:
  
 A1 = (   3.8287245653,   0.0000000000,   0.0000000000)
 A2 = (   1.9143622826,   3.3157727376,   0.0000000000)
 A3 = (   1.9143622826,   1.1052575792,   3.1261405169)


Analysis of symmetry for initial positions (statically):
=====================================================================
 Subroutine PRICEL returns:
 Original cell was already a primitive cell.
 

 Routine SETGRP: Setting up the symmetry group for a 
 face centered cubic supercell.


 Subroutine GETGRP returns: Found 48 space group operations
 (whereof 48 operations were pure point group operations)
 out of a pool of 48 trial point group operations.


The static configuration has the point symmetry O_h .


Analysis of symmetry for dynamics (positions and initial velocities):
=====================================================================
 Subroutine PRICEL returns:
 Original cell was already a primitive cell.
 

 Routine SETGRP: Setting up the symmetry group for a 
 face centered cubic supercell.


 Subroutine GETGRP returns: Found 48 space group operations
 (whereof 48 operations were pure point group operations)
 out of a pool of 48 trial point group operations.


The dynamic configuration has the point symmetry O_h .


Analysis of structural, dynamic, and magnetic symmetry:
=====================================================================
 Subroutine PRICEL returns:
 Original cell was already a primitive cell.
 

 Routine SETGRP: Setting up the symmetry group for a 
 face centered cubic supercell.


 Subroutine GETGRP returns: Found 48 space group operations
 (whereof 48 operations were pure point group operations)
 out of a pool of 48 trial point group operations.


The magnetic configuration has the point symmetry O_h .


 Subroutine INISYM returns: Found 48 space group operations
 (whereof 48 operations are pure point group operations),
 and found     1 'primitive' translations

 
 
 KPOINTS: KPOINTS created by HTE                  

Automatic generation of k-mesh.
Space group operators:
 irot       det(A)        alpha          n_x          n_y          n_z        tau_x        tau_y        tau_z
    1     1.000000     0.000000     1.000000     0.000000     0.000000     0.000000     0.000000     0.000000
    2    -1.000000     0.000000     1.000000     0.000000     0.000000     0.000000     0.000000     0.000000
    3     1.000000   120.000000    -0.816497    -0.471405    -0.333333     0.000000     0.000000     0.000000
    4    -1.000000   120.000000    -0.816497    -0.471405    -0.333333     0.000000     0.000000     0.000000
    5     1.000000   120.000000     0.816497     0.471405     0.333333     0.000000     0.000000     0.000000
    6    -1.000000   120.000000     0.816497     0.471405     0.333333     0.000000     0.000000     0.000000
    7     1.000000    90.000000    -0.707107    -0.408248     0.577350     0.000000     0.000000     0.000000
    8    -1.000000    90.000000    -0.707107    -0.408248     0.577350     0.000000     0.000000     0.000000
    9     1.000000   180.000000     1.000000    -0.000000    -0.000000     0.000000     0.000000     0.000000
   10    -1.000000   180.000000     1.000000    -0.000000    -0.000000     0.000000     0.000000     0.000000
   11     1.000000    90.000000     0.707107    -0.408248     0.577350     0.000000     0.000000     0.000000
   12    -1.000000    90.000000     0.707107    -0.408248     0.577350     0.000000     0.000000     0.000000
   13     1.000000   180.000000     0.707107     0.408248    -0.577350     0.000000     0.000000     0.000000
   14    -1.000000   180.000000     0.707107     0.408248    -0.577350     0.000000     0.000000     0.000000
   15     1.000000   120.000000     0.816497    -0.471405    -0.333333     0.000000     0.000000     0.000000
   16    -1.000000   120.000000     0.816497    -0.471405    -0.333333     0.000000     0.000000     0.000000
   17     1.000000   120.000000     0.000000    -0.942809     0.333333     0.000000     0.000000     0.000000
   18    -1.000000   120.000000     0.000000    -0.942809     0.333333     0.000000     0.000000     0.000000
   19     1.000000    90.000000     0.707107     0.408248    -0.577350     0.000000     0.000000     0.000000
   20    -1.000000    90.000000     0.707107     0.408248    -0.577350     0.000000     0.000000     0.000000
   21     1.000000    90.000000    -0.000000    -0.816497    -0.577350     0.000000     0.000000     0.000000
   22    -1.000000    90.000000    -0.000000    -0.816497    -0.577350     0.000000     0.000000     0.000000
   23     1.000000   180.000000     0.500000     0.866025    -0.000000     0.000000     0.000000     0.000000
   24    -1.000000   180.000000     0.500000     0.866025    -0.000000     0.000000     0.000000     0.000000
   25     1.000000   120.000000     0.000000     0.942809    -0.333333     0.000000     0.000000     0.000000
   26    -1.000000   120.000000     0.000000     0.942809    -0.333333     0.000000     0.000000     0.000000
   27     1.000000   120.000000    -0.000000    -0.000000    -1.000000     0.000000     0.000000     0.000000
   28    -1.000000   120.000000    -0.000000    -0.000000    -1.000000     0.000000     0.000000     0.000000
   29     1.000000   180.000000     0.000000     0.816497     0.577350     0.000000     0.000000     0.000000
   30    -1.000000   180.000000     0.000000     0.816497     0.577350     0.000000     0.000000     0.000000
   31     1.000000    90.000000    -0.707107     0.408248    -0.577350     0.000000     0.000000     0.000000
   32    -1.000000    90.000000    -0.707107     0.408248    -0.577350     0.000000     0.000000     0.000000
   33     1.000000   179.999999     0.500000     0.288675     0.816497     0.000000     0.000000     0.000000
   34    -1.000000   179.999999     0.500000     0.288675     0.816497     0.000000     0.000000     0.000000
   35     1.000000    90.000000     0.000000     0.816497     0.577350     0.000000     0.000000     0.000000
   36    -1.000000    90.000000     0.000000     0.816497     0.577350     0.000000     0.000000     0.000000
   37     1.000000   120.000000    -0.816497     0.471405     0.333333     0.000000     0.000000     0.000000
   38    -1.000000   120.000000    -0.816497     0.471405     0.333333     0.000000     0.000000     0.000000
   39     1.000000   180.000000     0.707107    -0.408248     0.577350     0.000000     0.000000     0.000000
   40    -1.000000   180.000000     0.707107    -0.408248     0.577350     0.000000     0.000000     0.000000
   41     1.000000   120.000000     0.000000    -0.000000     1.000000     0.000000     0.000000     0.000000
   42    -1.000000   120.000000     0.000000    -0.000000     1.000000     0.000000     0.000000     0.000000
   43     1.000000   179.999999    -0.000000     0.577350    -0.816497     0.000000     0.000000     0.000000
   44    -1.000000   179.999999    -0.000000     0.577350    -0.816497     0.000000     0.000000     0.000000
   45     1.000000   180.000000    -0.500000     0.866025     0.000000     0.000000     0.000000     0.000000
   46    -1.000000   180.000000    -0.500000     0.866025     0.000000     0.000000     0.000000     0.000000
   47     1.000000   180.000000    -0.500000     0.288675     0.816497     0.000000     0.000000     0.000000
   48    -1.000000   180.000000    -0.500000     0.288675     0.816497     0.000000     0.000000     0.000000
 
 Subroutine IBZKPT returns following result:
 ===========================================
 
 Found    145 irreducible k-points:
 
 Following reciprocal coordinates:
            Coordinates               Weight
  0.000000  0.000000  0.000000      1.000000
  0.062500  0.000000  0.000000      8.000000
  0.125000  0.000000  0.000000      8.000000
  0.187500  0.000000  0.000000      8.000000
  0.250000  0.000000  0.000000      8.000000
  0.312500 -0.000000 -0.000000      8.000000
  0.375000  0.000000  0.000000      8.000000
  0.437500 -0.000000 -0.000000      8.000000
  0.500000  0.000000  0.000000      4.000000
  0.062500  0.062500  0.000000      6.000000
  0.125000  0.062500  0.000000     24.000000
  0.187500  0.062500 -0.000000     24.000000
  0.250000  0.062500  0.000000     24.000000
  0.312500  0.062500 -0.000000     24.000000
  0.375000  0.062500 -0.000000     24.000000
  0.437500  0.062500 -0.000000     24.000000
  0.500000  0.062500  0.000000     24.000000
 -0.437500  0.062500  0.000000     24.000000
 -0.375000  0.062500  0.000000     24.000000
 -0.312500  0.062500  0.000000     24.000000
 -0.250000  0.062500  0.000000     24.000000
 -0.187500  0.062500  0.000000     24.000000
 -0.125000  0.062500  0.000000     24.000000
 -0.062500  0.062500 -0.000000     12.000000
  0.125000  0.125000  0.000000      6.000000
  0.187500  0.125000 -0.000000     24.000000
  0.250000  0.125000  0.000000     24.000000
  0.312500  0.125000  0.000000     24.000000
  0.375000  0.125000 -0.000000     24.000000
  0.437500  0.125000  0.000000     24.000000
  0.500000  0.125000  0.000000     24.000000
 -0.437500  0.125000  0.000000     24.000000
 -0.375000  0.125000  0.000000     24.000000
 -0.312500  0.125000  0.000000     24.000000
 -0.250000  0.125000  0.000000     24.000000
 -0.187500  0.125000  0.000000     24.000000
 -0.125000  0.125000 -0.000000     12.000000
  0.187500  0.187500  0.000000      6.000000
  0.250000  0.187500  0.000000     24.000000
  0.312500  0.187500  0.000000     24.000000
  0.375000  0.187500 -0.000000     24.000000
  0.437500  0.187500  0.000000     24.000000
  0.500000  0.187500  0.000000     24.000000
 -0.437500  0.187500  0.000000     24.000000
 -0.375000  0.187500  0.000000     24.000000
 -0.312500  0.187500  0.000000     24.000000
 -0.250000  0.187500 -0.000000     24.000000
 -0.187500  0.187500  0.000000     12.000000
  0.250000  0.250000  0.000000      6.000000
  0.312500  0.250000  0.000000     24.000000
  0.375000  0.250000 -0.000000     24.000000
  0.437500  0.250000 -0.000000     24.000000
  0.500000  0.250000  0.000000     24.000000
 -0.437500  0.250000  0.000000     24.000000
 -0.375000  0.250000  0.000000     24.000000
 -0.312500  0.250000  0.000000     24.000000
 -0.250000  0.250000 -0.000000     12.000000
  0.312500  0.312500  0.000000      6.000000
  0.375000  0.312500 -0.000000     24.000000
  0.437500  0.312500  0.000000     24.000000
  0.500000  0.312500  0.000000     24.000000
 -0.437500  0.312500  0.000000     24.000000
 -0.375000  0.312500  0.000000     24.000000
 -0.312500  0.312500 -0.000000     12.000000
  0.375000  0.375000  0.000000      6.000000
  0.437500  0.375000  0.000000     24.000000
  0.500000  0.375000  0.000000     24.000000
 -0.437500  0.375000 -0.000000     24.000000
 -0.375000  0.375000  0.000000     12.000000
  0.437500  0.437500  0.000000      6.000000
  0.500000  0.437500  0.000000     24.000000
 -0.437500  0.437500  0.000000     12.000000
  0.500000  0.500000  0.000000      3.000000
  0.187500  0.125000  0.062500     24.000000
  0.250000  0.125000  0.062500     48.000000
  0.312500  0.125000  0.062500     48.000000
  0.375000  0.125000  0.062500     48.000000
  0.437500  0.125000  0.062500     48.000000
  0.500000  0.125000  0.062500     48.000000
 -0.437500  0.125000  0.062500     24.000000
  0.250000  0.187500  0.062500     24.000000
  0.312500  0.187500  0.062500     48.000000
  0.375000  0.187500  0.062500     48.000000
  0.437500  0.187500  0.062500     48.000000
  0.500000  0.187500  0.062500     48.000000
 -0.437500  0.187500  0.062500     48.000000
 -0.375000  0.187500  0.062500     48.000000
 -0.312500  0.187500  0.062500     48.000000
 -0.250000  0.187500  0.062500     48.000000
 -0.187500  0.187500  0.062500     48.000000
 -0.125000  0.187500  0.062500     24.000000
  0.312500  0.250000  0.062500     24.000000
  0.375000  0.250000  0.062500     48.000000
  0.437500  0.250000  0.062500     48.000000
  0.500000  0.250000  0.062500     48.000000
 -0.437500  0.250000  0.062500     48.000000
 -0.375000  0.250000  0.062500     48.000000
 -0.312500  0.250000  0.062500     48.000000
 -0.250000  0.250000  0.062500     48.000000
 -0.187500  0.250000  0.062500     24.000000
  0.375000  0.312500  0.062500     24.000000
  0.437500  0.312500  0.062500     48.000000
  0.500000  0.312500  0.062500     48.000000
 -0.437500  0.312500  0.062500     48.000000
 -0.375000  0.312500  0.062500     48.000000
 -0.312500  0.312500  0.062500     48.000000
 -0.250000  0.312500  0.062500     24.000000
  0.437500  0.375000  0.062500     24.000000
  0.500000  0.375000  0.062500     48.000000
 -0.437500  0.375000  0.062500     48.000000
 -0.375000  0.375000  0.062500     48.000000
 -0.312500  0.375000  0.062500     24.000000
  0.500000  0.437500  0.062500     24.000000
 -0.437500  0.437500  0.062500     48.000000
 -0.375000  0.437500  0.062500     24.000000
 -0.437500  0.500000  0.062500     12.000000
  0.375000  0.250000  0.125000     24.000000
  0.437500  0.250000  0.125000     48.000000
  0.500000  0.250000  0.125000     48.000000
 -0.437500  0.250000  0.125000     48.000000
 -0.375000  0.250000  0.125000     24.000000
  0.437500  0.312500  0.125000     24.000000
  0.500000  0.312500  0.125000     48.000000
 -0.437500  0.312500  0.125000     48.000000
 -0.375000  0.312500  0.125000     48.000000
 -0.312500  0.312500  0.125000     48.000000
 -0.250000  0.312500  0.125000     48.000000
 -0.187500  0.312500  0.125000     24.000000
  0.500000  0.375000  0.125000     24.000000
 -0.437500  0.375000  0.125000     48.000000
 -0.375000  0.375000  0.125000     48.000000
 -0.312500  0.375000  0.125000     48.000000
 -0.250000  0.375000  0.125000     24.000000
 -0.437500  0.437500  0.125000     24.000000
 -0.375000  0.437500  0.125000     48.000000
 -0.312500  0.437500  0.125000     24.000000
 -0.375000  0.500000  0.125000     12.000000
 -0.437500  0.375000  0.187500     24.000000
 -0.375000  0.375000  0.187500     48.000000
 -0.312500  0.375000  0.187500     24.000000
 -0.375000  0.437500  0.187500     24.000000
 -0.312500  0.437500  0.187500     48.000000
 -0.250000  0.437500  0.187500     24.000000
 -0.312500  0.500000  0.187500     12.000000
 -0.250000  0.500000  0.250000      6.000000
 
 Following cartesian coordinates:
            Coordinates               Weight
  0.000000  0.000000  0.000000      1.000000
  0.016324 -0.009425 -0.006664      8.000000
  0.032648 -0.018849 -0.013328      8.000000
  0.048972 -0.028274 -0.019993      8.000000
  0.065296 -0.037699 -0.026657      8.000000
  0.081620 -0.047123 -0.033321      8.000000
  0.097944 -0.056548 -0.039985      8.000000
  0.114268 -0.065973 -0.046650      8.000000
  0.130592 -0.075397 -0.053314      4.000000
  0.016324  0.009425 -0.013328      6.000000
  0.032648 -0.000000 -0.019993     24.000000
  0.048972 -0.009425 -0.026657     24.000000
  0.065296 -0.018849 -0.033321     24.000000
  0.081620 -0.028274 -0.039985     24.000000
  0.097944 -0.037699 -0.046650     24.000000
  0.114268 -0.047123 -0.053314     24.000000
  0.130592 -0.056548 -0.059978     24.000000
 -0.114268  0.084822  0.039985     24.000000
 -0.097944  0.075397  0.033321     24.000000
 -0.081620  0.065973  0.026657     24.000000
 -0.065296  0.056548  0.019993     24.000000
 -0.048972  0.047123  0.013328     24.000000
 -0.032648  0.037699  0.006664     24.000000
 -0.016324  0.028274  0.000000     12.000000
  0.032648  0.018849 -0.026657      6.000000
  0.048972  0.009425 -0.033321     24.000000
  0.065296 -0.000000 -0.039985     24.000000
  0.081620 -0.009425 -0.046650     24.000000
  0.097944 -0.018849 -0.053314     24.000000
  0.114268 -0.028274 -0.059978     24.000000
  0.130592 -0.037699 -0.066642     24.000000
 -0.114268  0.103671  0.033321     24.000000
 -0.097944  0.094247  0.026657     24.000000
 -0.081620  0.084822  0.019993     24.000000
 -0.065296  0.075397  0.013328     24.000000
 -0.048972  0.065973  0.006664     24.000000
 -0.032648  0.056548  0.000000     12.000000
  0.048972  0.028274 -0.039985      6.000000
  0.065296  0.018849 -0.046650     24.000000
  0.081620  0.009425 -0.053314     24.000000
  0.097944 -0.000000 -0.059978     24.000000
  0.114268 -0.009425 -0.066642     24.000000
  0.130592 -0.018849 -0.073307     24.000000
 -0.114268  0.122520  0.026657     24.000000
 -0.097944  0.113096  0.019993     24.000000
 -0.081620  0.103671  0.013328     24.000000
 -0.065296  0.094247  0.006664     24.000000
 -0.048972  0.084822  0.000000     12.000000
  0.065296  0.037699 -0.053314      6.000000
  0.081620  0.028274 -0.059978     24.000000
  0.097944  0.018849 -0.066642     24.000000
  0.114268  0.009425 -0.073307     24.000000
  0.130592 -0.000000 -0.079971     24.000000
 -0.114268  0.141370  0.019993     24.000000
 -0.097944  0.131945  0.013328     24.000000
 -0.081620  0.122520  0.006664     24.000000
 -0.065296  0.113096  0.000000     12.000000
  0.081620  0.047123 -0.066642      6.000000
  0.097944  0.037699 -0.073307     24.000000
  0.114268  0.028274 -0.079971     24.000000
  0.130592  0.018849 -0.086635     24.000000
 -0.114268  0.160219  0.013328     24.000000
 -0.097944  0.150794  0.006664     24.000000
 -0.081620  0.141370  0.000000     12.000000
  0.097944  0.056548 -0.079971      6.000000
  0.114268  0.047123 -0.086635     24.000000
  0.130592  0.037699 -0.093299     24.000000
 -0.114268  0.179068  0.006664     24.000000
 -0.097944  0.169644  0.000000     12.000000
  0.114268  0.065973 -0.093299      6.000000
  0.130592  0.056548 -0.099964     24.000000
 -0.114268  0.197918  0.000000     12.000000
  0.130592  0.075397 -0.106628      3.000000
  0.048972  0.009425 -0.013328     24.000000
  0.065296 -0.000000 -0.019993     48.000000
  0.081620 -0.009425 -0.026657     48.000000
  0.097944 -0.018849 -0.033321     48.000000
  0.114268 -0.028274 -0.039985     48.000000
  0.130592 -0.037699 -0.046650     48.000000
 -0.114268  0.103671  0.053314     24.000000
  0.065296  0.018849 -0.026657     24.000000
  0.081620  0.009425 -0.033321     48.000000
  0.097944 -0.000000 -0.039985     48.000000
  0.114268 -0.009425 -0.046650     48.000000
  0.130592 -0.018849 -0.053314     48.000000
 -0.114268  0.122520  0.046650     48.000000
 -0.097944  0.113096  0.039985     48.000000
 -0.081620  0.103671  0.033321     48.000000
 -0.065296  0.094247  0.026657     48.000000
 -0.048972  0.084822  0.019993     48.000000
 -0.032648  0.075397  0.013328     24.000000
  0.081620  0.028274 -0.039985     24.000000
  0.097944  0.018849 -0.046650     48.000000
  0.114268  0.009425 -0.053314     48.000000
  0.130592 -0.000000 -0.059978     48.000000
 -0.114268  0.141370  0.039985     48.000000
 -0.097944  0.131945  0.033321     48.000000
 -0.081620  0.122520  0.026657     48.000000
 -0.065296  0.113096  0.019993     48.000000
 -0.048972  0.103671  0.013328     24.000000
  0.097944  0.037699 -0.053314     24.000000
  0.114268  0.028274 -0.059978     48.000000
  0.130592  0.018849 -0.066642     48.000000
 -0.114268  0.160219  0.033321     48.000000
 -0.097944  0.150794  0.026657     48.000000
 -0.081620  0.141370  0.019993     48.000000
 -0.065296  0.131945  0.013328     24.000000
  0.114268  0.047123 -0.066642     24.000000
  0.130592  0.037699 -0.073307     48.000000
 -0.114268  0.179068  0.026657     48.000000
 -0.097944  0.169644  0.019993     48.000000
 -0.081620  0.160219  0.013328     24.000000
  0.130592  0.056548 -0.079971     24.000000
 -0.114268  0.197918  0.019993     48.000000
 -0.097944  0.188493  0.013328     24.000000
 -0.114268  0.216767  0.013328     12.000000
  0.097944  0.018849 -0.026657     24.000000
  0.114268  0.009425 -0.033321     48.000000
  0.130592 -0.000000 -0.039985     48.000000
 -0.114268  0.141370  0.059978     48.000000
 -0.097944  0.131945  0.053314     24.000000
  0.114268  0.028274 -0.039985     24.000000
  0.130592  0.018849 -0.046650     48.000000
 -0.114268  0.160219  0.053314     48.000000
 -0.097944  0.150794  0.046650     48.000000
 -0.081620  0.141370  0.039985     48.000000
 -0.065296  0.131945  0.033321     48.000000
 -0.048972  0.122520  0.026657     24.000000
  0.130592  0.037699 -0.053314     24.000000
 -0.114268  0.179068  0.046650     48.000000
 -0.097944  0.169644  0.039985     48.000000
 -0.081620  0.160219  0.033321     48.000000
 -0.065296  0.150794  0.026657     24.000000
 -0.114268  0.197918  0.039985     24.000000
 -0.097944  0.188493  0.033321     48.000000
 -0.081620  0.179068  0.026657     24.000000
 -0.097944  0.207342  0.026657     12.000000
 -0.114268  0.179068  0.066642     24.000000
 -0.097944  0.169644  0.059978     48.000000
 -0.081620  0.160219  0.053314     24.000000
 -0.097944  0.188493  0.053314     24.000000
 -0.081620  0.179068  0.046650     48.000000
 -0.065296  0.169644  0.039985     24.000000
 -0.081620  0.197918  0.039985     12.000000
 -0.065296  0.188493  0.053314      6.000000
 
 TETIRR: Found    570 inequivalent tetrahedra from    24576


--------------------------------------------------------------------------------------------------------




 Dimension of arrays:
   k-points           NKPTS =    145   k-points in BZ     NKDIM =    145   number of bands    NBANDS=     21
   number of dos      NEDOS =    301   number of ions     NIONS =      3
   non local maximal  LDIM  =      6   non local SUM 2l+1 LMDIM =     18
   total plane-waves  NPLWV =  21952
   max r-space proj   IRMAX =      1   max aug-charges    IRDMAX=   8149
   dimension x,y,z NGX =    28 NGY =   28 NGZ =   28
   dimension x,y,z NGXF=    40 NGYF=   40 NGZF=   40
   support grid    NGXF=    40 NGYF=   40 NGZF=   40
   ions per type =               2   1
   NGX,Y,Z   is equivalent  to a cutoff of  12.16, 12.16, 12.16 a.u.
   NGXF,Y,Z  is equivalent  to a cutoff of  17.37, 17.37, 17.37 a.u.

 SYSTEM =  unknown system                          
 POSCAR =  Co Fe                                   

 Startparameter for this run:
   NWRITE =      2    write-flag & timer
   PREC   = high      normal or accurate (medium, high low for compatibility)
   ISTART =      0    job   : 0-new  1-cont  2-samecut
   ICHARG =      2    charge: 1-file 2-atom 10-const
   ISPIN  =      2    spin polarized calculation?
   LNONCOLLINEAR =      F non collinear calculations
   LSORBIT =      F    spin-orbit coupling
   INIWAV =      1    electr: 0-lowe 1-rand  2-diag
   LASPH  =      F    aspherical Exc in radial PAW
   METAGGA=      F    non-selfconsistent MetaGGA calc.

 Electronic Relaxation 1
   ENCUT  =  500.0 eV  36.75 Ry    6.06 a.u.   6.98  6.98  6.98*2*pi/ulx,y,z
   ENINI  =  500.0     initial cutoff
   ENAUG  =  511.4 eV  augmentation charge cutoff
   NELM   =     60;   NELMIN=  2; NELMDL= -5     # of ELM steps 
   EDIFF  = 0.1E-03   stopping-criterion for ELM
   LREAL  =      F    real-space projection
   NLSPLINE    = F    spline interpolate recip. space projectors
   LCOMPAT=      F    compatible to vasp.4.4
   GGA_COMPAT  = T    GGA compatible to vasp.4.4-vasp.4.6
   LMAXPAW     = -100 max onsite density
   LMAXMIX     =    2 max onsite mixed and CHGCAR
   VOSKOWN=      0    Vosko Wilk Nusair interpolation
   ROPT   =    0.00000   0.00000
 Ionic relaxation
   EDIFFG = 0.1E-02   stopping-criterion for IOM
   NSW    =      0    number of steps for IOM
   NBLOCK =      1;   KBLOCK =      1    inner block; outer block 
   IBRION =     -1    ionic relax: 0-MD 1-quasi-New 2-CG
   NFREE  =      0    steps in history (QN), initial steepest desc. (CG)
   ISIF   =      2    stress and relaxation
   IWAVPR =     10    prediction:  0-non 1-charg 2-wave 3-comb
   ISYM   =      2    0-nonsym 1-usesym 2-fastsym
   LCORR  =      T    Harris-Foulkes like correction to forces

   POTIM  = 0.5000    time-step for ionic-motion
   TEIN   =    0.0    initial temperature
   TEBEG  =    0.0;   TEEND  =   0.0 temperature during run
   SMASS  =  -3.00    Nose mass-parameter (am)
   estimated Nose-frequenzy (Omega)   =  0.10E-29 period in steps =****** mass=  -0.335E-27a.u.
   SCALEE = 1.0000    scale energy and forces
   NPACO  =    256;   APACO  = 16.0  distance and # of slots for P.C.
   PSTRESS=    0.0 pullay stress

  Mass of Ions in am
   POMASS =  58.93 55.85
  Ionic Valenz
   ZVAL   =   9.00  8.00
  Atomic Wigner-Seitz radii
   RWIGS  =  -1.00 -1.00
  virtual crystal weights 
   VCA    =   1.00  1.00
   NELECT =      26.0000    total number of electrons
   NUPDOWN=      -1.0000    fix difference up-down

 DOS related values:
   EMIN   =  10.00;   EMAX   =-10.00  energy-range for DOS
   EFERMI =   0.00
   ISMEAR =    -5;   SIGMA  =   0.20  broadening in eV -4-tet -1-fermi 0-gaus

 Electronic relaxation 2 (details)
   IALGO  =     38    algorithm
   LDIAG  =      T    sub-space diagonalisation (order eigenvalues)
   LSUBROT=      F    optimize rotation matrix (better conditioning)
   TURBO    =      0    0=normal 1=particle mesh
   IRESTART =      0    0=no restart 2=restart with 2 vectors
   NREBOOT  =      0    no. of reboots
   NMIN     =      0    reboot dimension
   EREF     =   0.00    reference energy to select bands
   IMIX   =      4    mixing-type and parameters
     AMIX     =   0.40;   BMIX     =  1.00
     AMIX_MAG =   1.60;   BMIX_MAG =  1.00
     AMIN     =   0.10
     WC   =   100.;   INIMIX=   1;  MIXPRE=   1;  MAXMIX= -45

 Intra band minimization:
   WEIMIN = 0.0000     energy-eigenvalue tresh-hold
   EBREAK =  0.12E-05  absolut break condition
   DEPER  =   0.30     relativ break condition  

   TIME   =   0.40     timestep for ELM

  volume/ion in A,a.u.               =      13.23        89.27
  Fermi-wavevector in a.u.,A,eV,Ry     =   1.421838  2.686884 27.505860  2.021624
  Thomas-Fermi vector in A             =   2.542605
 
 Write flags
   LWAVE        =      F    write WAVECAR
   LDOWNSAMPLE  =      F    k-point downsampling of WAVECAR
   LCHARG       =      F    write CHGCAR
   LVTOT        =      F    write LOCPOT, total local potential
   LVHAR        =      F    write LOCPOT, Hartree potential only
   LELF         =      F    write electronic localiz. function (ELF)
   LORBIT       =     11    0 simple, 1 ext, 2 COOP (PROOUT), +10 PAW based schemes


 Dipole corrections
   LMONO  =      F    monopole corrections only (constant potential shift)
   LDIPOL =      F    correct potential (dipole corrections)
   IDIPOL =      0    1-x, 2-y, 3-z, 4-all directions 
   EPSILON=  1.0000000 bulk dielectric constant

 Exchange correlation treatment:
   GGA     =    --    GGA type
   LEXCH   =     8    internal setting for exchange type
   VOSKOWN=      0    Vosko Wilk Nusair interpolation
   LHFCALC =     F    Hartree Fock is set to
   LHFONE  =     F    Hartree Fock one center treatment
   AEXX    =    0.0000 exact exchange contribution

 Linear response parameters
   LEPSILON=     F    determine dielectric tensor
   LRPA    =     F    only Hartree local field effects (RPA)
   LNABLA  =     F    use nabla operator in PAW spheres
   LVEL    =     F    velocity operator in full k-point grid
   LINTERFAST=   F  fast interpolation
   KINTER  =     0    interpolate to denser k-point grid
   CSHIFT  =0.1000    complex shift for real part using Kramers Kronig
   OMEGAMAX=  -1.0    maximum frequency
   DEG_THRESHOLD= 0.2000000E-02 threshold for treating states as degnerate
   RTIME   =   -0.100 relaxation time in fs
  (WPLASMAI=    0.000 imaginary part of plasma frequency in eV, 0.658/RTIME)
   DFIELD  = 0.0000000 0.0000000 0.0000000 field for delta impulse in time
 
 Orbital magnetization related:
   ORBITALMAG=     F  switch on orbital magnetization
   LCHIMAG   =     F  perturbation theory with respect to B field
   DQ        =  0.001000  dq finite difference perturbation B field
   LLRAUG    =     F  two centre corrections for induced B field



--------------------------------------------------------------------------------------------------------


 Static calculation
 charge density and potential will be updated during run
 spin polarized calculation
 Variant of blocked Davidson
 Davidson routine will perform the subspace rotation
 perform sub-space diagonalisation
    after iterative eigenvector-optimisation
 modified Broyden-mixing scheme, WC =      100.0
 initial mixing is a Kerker type mixing with AMIX =  0.4000 and BMIX =      1.0000
 Hartree-type preconditioning will be used
 using additional bands            8
 reciprocal scheme for non local part
 use partial core corrections
 calculate Harris-corrections to forces 
   (improved forces if not selfconsistent)
 use gradient corrections 
 use of overlap-Matrix (Vanderbilt PP)
 Fermi weights with tetrahedron method with Bloechl corrections


--------------------------------------------------------------------------------------------------------


  energy-cutoff  :      500.00
  volume of cell :       39.69
      direct lattice vectors                 reciprocal lattice vectors
     3.828724565  0.000000000  0.000000000     0.261183583 -0.150794412 -0.106627751
     1.914362283  3.315772738  0.000000000    -0.000000000  0.301588824 -0.106627751
     1.914362283  1.105257579  3.126140517     0.000000000  0.000000000  0.319883254

  length of vectors
     3.828724565  3.828724565  3.828724565     0.319883254  0.319883254  0.319883254


 
 k-points in units of 2pi/SCALE and weight: KPOINTS created by HTE                  
   0.00000000  0.00000000  0.00000000       0.000
   0.01632397 -0.00942465 -0.00666423       0.002
   0.03264795 -0.01884930 -0.01332847       0.002
   0.04897192 -0.02827395 -0.01999270       0.002
   0.06529590 -0.03769860 -0.02665694       0.002
   0.08161987 -0.04712325 -0.03332117       0.002
   0.09794384 -0.05654790 -0.03998541       0.002
   0.11426782 -0.06597256 -0.04664964       0.002
   0.13059179 -0.07539721 -0.05331388       0.001
   0.01632397  0.00942465 -0.01332847       0.001
   0.03264795 -0.00000000 -0.01999270       0.006
   0.04897192 -0.00942465 -0.02665694       0.006
   0.06529590 -0.01884930 -0.03332117       0.006
   0.08161987 -0.02827395 -0.03998541       0.006
   0.09794384 -0.03769860 -0.04664964       0.006
   0.11426782 -0.04712325 -0.05331388       0.006
   0.13059179 -0.05654790 -0.05997811       0.006
  -0.11426782  0.08482186  0.03998541       0.006
  -0.09794384  0.07539721  0.03332117       0.006
  -0.08161987  0.06597256  0.02665694       0.006
  -0.06529590  0.05654790  0.01999270       0.006
  -0.04897192  0.04712325  0.01332847       0.006
  -0.03264795  0.03769860  0.00666423       0.006
  -0.01632397  0.02827395  0.00000000       0.003
   0.03264795  0.01884930 -0.02665694       0.001
   0.04897192  0.00942465 -0.03332117       0.006
   0.06529590 -0.00000000 -0.03998541       0.006
   0.08161987 -0.00942465 -0.04664964       0.006
   0.09794384 -0.01884930 -0.05331388       0.006
   0.11426782 -0.02827395 -0.05997811       0.006
   0.13059179 -0.03769860 -0.06664234       0.006
  -0.11426782  0.10367116  0.03332117       0.006
  -0.09794384  0.09424651  0.02665694       0.006
  -0.08161987  0.08482186  0.01999270       0.006
  -0.06529590  0.07539721  0.01332847       0.006
  -0.04897192  0.06597256  0.00666423       0.006
  -0.03264795  0.05654790  0.00000000       0.003
   0.04897192  0.02827395 -0.03998541       0.001
   0.06529590  0.01884930 -0.04664964       0.006
   0.08161987  0.00942465 -0.05331388       0.006
   0.09794384 -0.00000000 -0.05997811       0.006
   0.11426782 -0.00942465 -0.06664234       0.006
   0.13059179 -0.01884930 -0.07330658       0.006
  -0.11426782  0.12252046  0.02665694       0.006
  -0.09794384  0.11309581  0.01999270       0.006
  -0.08161987  0.10367116  0.01332847       0.006
  -0.06529590  0.09424651  0.00666423       0.006
  -0.04897192  0.08482186  0.00000000       0.003
   0.06529590  0.03769860 -0.05331388       0.001
   0.08161987  0.02827395 -0.05997811       0.006
   0.09794384  0.01884930 -0.06664234       0.006
   0.11426782  0.00942465 -0.07330658       0.006
   0.13059179 -0.00000000 -0.07997081       0.006
  -0.11426782  0.14136976  0.01999270       0.006
  -0.09794384  0.13194511  0.01332847       0.006
  -0.08161987  0.12252046  0.00666423       0.006
  -0.06529590  0.11309581  0.00000000       0.003
   0.08161987  0.04712325 -0.06664234       0.001
   0.09794384  0.03769860 -0.07330658       0.006
   0.11426782  0.02827395 -0.07997081       0.006
   0.13059179  0.01884930 -0.08663505       0.006
  -0.11426782  0.16021906  0.01332847       0.006
  -0.09794384  0.15079441  0.00666423       0.006
  -0.08161987  0.14136976  0.00000000       0.003
   0.09794384  0.05654790 -0.07997081       0.001
   0.11426782  0.04712325 -0.08663505       0.006
   0.13059179  0.03769860 -0.09329928       0.006
  -0.11426782  0.17906836  0.00666423       0.006
  -0.09794384  0.16964371  0.00000000       0.003
   0.11426782  0.06597256 -0.09329928       0.001
   0.13059179  0.05654790 -0.09996352       0.006
  -0.11426782  0.19791767  0.00000000       0.003
   0.13059179  0.07539721 -0.10662775       0.001
   0.04897192  0.00942465 -0.01332847       0.006
   0.06529590 -0.00000000 -0.01999270       0.012
   0.08161987 -0.00942465 -0.02665694       0.012
   0.09794384 -0.01884930 -0.03332117       0.012
   0.11426782 -0.02827395 -0.03998541       0.012
   0.13059179 -0.03769860 -0.04664964       0.012
  -0.11426782  0.10367116  0.05331388       0.006
   0.06529590  0.01884930 -0.02665694       0.006
   0.08161987  0.00942465 -0.03332117       0.012
   0.09794384 -0.00000000 -0.03998541       0.012
   0.11426782 -0.00942465 -0.04664964       0.012
   0.13059179 -0.01884930 -0.05331388       0.012
  -0.11426782  0.12252046  0.04664964       0.012
  -0.09794384  0.11309581  0.03998541       0.012
  -0.08161987  0.10367116  0.03332117       0.012
  -0.06529590  0.09424651  0.02665694       0.012
  -0.04897192  0.08482186  0.01999270       0.012
  -0.03264795  0.07539721  0.01332847       0.006
   0.08161987  0.02827395 -0.03998541       0.006
   0.09794384  0.01884930 -0.04664964       0.012
   0.11426782  0.00942465 -0.05331388       0.012
   0.13059179 -0.00000000 -0.05997811       0.012
  -0.11426782  0.14136976  0.03998541       0.012
  -0.09794384  0.13194511  0.03332117       0.012
  -0.08161987  0.12252046  0.02665694       0.012
  -0.06529590  0.11309581  0.01999270       0.012
  -0.04897192  0.10367116  0.01332847       0.006
   0.09794384  0.03769860 -0.05331388       0.006
   0.11426782  0.02827395 -0.05997811       0.012
   0.13059179  0.01884930 -0.06664234       0.012
  -0.11426782  0.16021906  0.03332117       0.012
  -0.09794384  0.15079441  0.02665694       0.012
  -0.08161987  0.14136976  0.01999270       0.012
  -0.06529590  0.13194511  0.01332847       0.006
   0.11426782  0.04712325 -0.06664234       0.006
   0.13059179  0.03769860 -0.07330658       0.012
  -0.11426782  0.17906836  0.02665694       0.012
  -0.09794384  0.16964371  0.01999270       0.012
  -0.08161987  0.16021906  0.01332847       0.006
   0.13059179  0.05654790 -0.07997081       0.006
  -0.11426782  0.19791767  0.01999270       0.012
  -0.09794384  0.18849301  0.01332847       0.006
  -0.11426782  0.21676697  0.01332847       0.003
   0.09794384  0.01884930 -0.02665694       0.006
   0.11426782  0.00942465 -0.03332117       0.012
   0.13059179 -0.00000000 -0.03998541       0.012
  -0.11426782  0.14136976  0.05997811       0.012
  -0.09794384  0.13194511  0.05331388       0.006
   0.11426782  0.02827395 -0.03998541       0.006
   0.13059179  0.01884930 -0.04664964       0.012
  -0.11426782  0.16021906  0.05331388       0.012
  -0.09794384  0.15079441  0.04664964       0.012
  -0.08161987  0.14136976  0.03998541       0.012
  -0.06529590  0.13194511  0.03332117       0.012
  -0.04897192  0.12252046  0.02665694       0.006
   0.13059179  0.03769860 -0.05331388       0.006
  -0.11426782  0.17906836  0.04664964       0.012
  -0.09794384  0.16964371  0.03998541       0.012
  -0.08161987  0.16021906  0.03332117       0.012
  -0.06529590  0.15079441  0.02665694       0.006
  -0.11426782  0.19791767  0.03998541       0.006
  -0.09794384  0.18849301  0.03332117       0.012
  -0.08161987  0.17906836  0.02665694       0.006
  -0.09794384  0.20734232  0.02665694       0.003
  -0.11426782  0.17906836  0.06664234       0.006
  -0.09794384  0.16964371  0.05997811       0.012
  -0.08161987  0.16021906  0.05331388       0.006
  -0.09794384  0.18849301  0.05331388       0.006
  -0.08161987  0.17906836  0.04664964       0.012
  -0.06529590  0.16964371  0.03998541       0.006
  -0.08161987  0.19791767  0.03998541       0.003
  -0.06529590  0.18849301  0.05331388       0.001
 
 k-points in reciprocal lattice and weights: KPOINTS created by HTE                  
   0.00000000  0.00000000  0.00000000       0.000
   0.06250000  0.00000000  0.00000000       0.002
   0.12500000  0.00000000  0.00000000       0.002
   0.18750000  0.00000000  0.00000000       0.002
   0.25000000  0.00000000  0.00000000       0.002
   0.31250000 -0.00000000 -0.00000000       0.002
   0.37500000  0.00000000  0.00000000       0.002
   0.43750000 -0.00000000 -0.00000000       0.002
   0.50000000  0.00000000  0.00000000       0.001
   0.06250000  0.06250000  0.00000000       0.001
   0.12500000  0.06250000  0.00000000       0.006
   0.18750000  0.06250000 -0.00000000       0.006
   0.25000000  0.06250000  0.00000000       0.006
   0.31250000  0.06250000 -0.00000000       0.006
   0.37500000  0.06250000 -0.00000000       0.006
   0.43750000  0.06250000 -0.00000000       0.006
   0.50000000  0.06250000  0.00000000       0.006
  -0.43750000  0.06250000  0.00000000       0.006
  -0.37500000  0.06250000  0.00000000       0.006
  -0.31250000  0.06250000  0.00000000       0.006
  -0.25000000  0.06250000  0.00000000       0.006
  -0.18750000  0.06250000  0.00000000       0.006
  -0.12500000  0.06250000  0.00000000       0.006
  -0.06250000  0.06250000 -0.00000000       0.003
   0.12500000  0.12500000  0.00000000       0.001
   0.18750000  0.12500000 -0.00000000       0.006
   0.25000000  0.12500000  0.00000000       0.006
   0.31250000  0.12500000  0.00000000       0.006
   0.37500000  0.12500000 -0.00000000       0.006
   0.43750000  0.12500000  0.00000000       0.006
   0.50000000  0.12500000  0.00000000       0.006
  -0.43750000  0.12500000  0.00000000       0.006
  -0.37500000  0.12500000  0.00000000       0.006
  -0.31250000  0.12500000  0.00000000       0.006
  -0.25000000  0.12500000  0.00000000       0.006
  -0.18750000  0.12500000  0.00000000       0.006
  -0.12500000  0.12500000 -0.00000000       0.003
   0.18750000  0.18750000  0.00000000       0.001
   0.25000000  0.18750000  0.00000000       0.006
   0.31250000  0.18750000  0.00000000       0.006
   0.37500000  0.18750000 -0.00000000       0.006
   0.43750000  0.18750000  0.00000000       0.006
   0.50000000  0.18750000  0.00000000       0.006
  -0.43750000  0.18750000  0.00000000       0.006
  -0.37500000  0.18750000  0.00000000       0.006
  -0.31250000  0.18750000  0.00000000       0.006
  -0.25000000  0.18750000 -0.00000000       0.006
  -0.18750000  0.18750000  0.00000000       0.003
   0.25000000  0.25000000  0.00000000       0.001
   0.31250000  0.25000000  0.00000000       0.006
   0.37500000  0.25000000 -0.00000000       0.006
   0.43750000  0.25000000 -0.00000000       0.006
   0.50000000  0.25000000  0.00000000       0.006
  -0.43750000  0.25000000  0.00000000       0.006
  -0.37500000  0.25000000  0.00000000       0.006
  -0.31250000  0.25000000  0.00000000       0.006
  -0.25000000  0.25000000 -0.00000000       0.003
   0.31250000  0.31250000  0.00000000       0.001
   0.37500000  0.31250000 -0.00000000       0.006
   0.43750000  0.31250000  0.00000000       0.006
   0.50000000  0.31250000  0.00000000       0.006
  -0.43750000  0.31250000  0.00000000       0.006
  -0.37500000  0.31250000  0.00000000       0.006
  -0.31250000  0.31250000 -0.00000000       0.003
   0.37500000  0.37500000  0.00000000       0.001
   0.43750000  0.37500000  0.00000000       0.006
   0.50000000  0.37500000  0.00000000       0.006
  -0.43750000  0.37500000 -0.00000000       0.006
  -0.37500000  0.37500000  0.00000000       0.003
   0.43750000  0.43750000  0.00000000       0.001
   0.50000000  0.43750000  0.00000000       0.006
  -0.43750000  0.43750000  0.00000000       0.003
   0.50000000  0.50000000  0.00000000       0.001
   0.18750000  0.12500000  0.06250000       0.006
   0.25000000  0.12500000  0.06250000       0.012
   0.31250000  0.12500000  0.06250000       0.012
   0.37500000  0.12500000  0.06250000       0.012
   0.43750000  0.12500000  0.06250000       0.012
   0.50000000  0.12500000  0.06250000       0.012
  -0.43750000  0.12500000  0.06250000       0.006
   0.25000000  0.18750000  0.06250000       0.006
   0.31250000  0.18750000  0.06250000       0.012
   0.37500000  0.18750000  0.06250000       0.012
   0.43750000  0.18750000  0.06250000       0.012
   0.50000000  0.18750000  0.06250000       0.012
  -0.43750000  0.18750000  0.06250000       0.012
  -0.37500000  0.18750000  0.06250000       0.012
  -0.31250000  0.18750000  0.06250000       0.012
  -0.25000000  0.18750000  0.06250000       0.012
  -0.18750000  0.18750000  0.06250000       0.012
  -0.12500000  0.18750000  0.06250000       0.006
   0.31250000  0.25000000  0.06250000       0.006
   0.37500000  0.25000000  0.06250000       0.012
   0.43750000  0.25000000  0.06250000       0.012
   0.50000000  0.25000000  0.06250000       0.012
  -0.43750000  0.25000000  0.06250000       0.012
  -0.37500000  0.25000000  0.06250000       0.012
  -0.31250000  0.25000000  0.06250000       0.012
  -0.25000000  0.25000000  0.06250000       0.012
  -0.18750000  0.25000000  0.06250000       0.006
   0.37500000  0.31250000  0.06250000       0.006
   0.43750000  0.31250000  0.06250000       0.012
   0.50000000  0.31250000  0.06250000       0.012
  -0.43750000  0.31250000  0.06250000       0.012
  -0.37500000  0.31250000  0.06250000       0.012
  -0.31250000  0.31250000  0.06250000       0.012
  -0.25000000  0.31250000  0.06250000       0.006
   0.43750000  0.37500000  0.06250000       0.006
   0.50000000  0.37500000  0.06250000       0.012
  -0.43750000  0.37500000  0.06250000       0.012
  -0.37500000  0.37500000  0.06250000       0.012
  -0.31250000  0.37500000  0.06250000       0.006
   0.50000000  0.43750000  0.06250000       0.006
  -0.43750000  0.43750000  0.06250000       0.012
  -0.37500000  0.43750000  0.06250000       0.006
  -0.43750000  0.50000000  0.06250000       0.003
   0.37500000  0.25000000  0.12500000       0.006
   0.43750000  0.25000000  0.12500000       0.012
   0.50000000  0.25000000  0.12500000       0.012
  -0.43750000  0.25000000  0.12500000       0.012
  -0.37500000  0.25000000  0.12500000       0.006
   0.43750000  0.31250000  0.12500000       0.006
   0.50000000  0.31250000  0.12500000       0.012
  -0.43750000  0.31250000  0.12500000       0.012
  -0.37500000  0.31250000  0.12500000       0.012
  -0.31250000  0.31250000  0.12500000       0.012
  -0.25000000  0.31250000  0.12500000       0.012
  -0.18750000  0.31250000  0.12500000       0.006
   0.50000000  0.37500000  0.12500000       0.006
  -0.43750000  0.37500000  0.12500000       0.012
  -0.37500000  0.37500000  0.12500000       0.012
  -0.31250000  0.37500000  0.12500000       0.012
  -0.25000000  0.37500000  0.12500000       0.006
  -0.43750000  0.43750000  0.12500000       0.006
  -0.37500000  0.43750000  0.12500000       0.012
  -0.31250000  0.43750000  0.12500000       0.006
  -0.37500000  0.50000000  0.12500000       0.003
  -0.43750000  0.37500000  0.18750000       0.006
  -0.37500000  0.37500000  0.18750000       0.012
  -0.31250000  0.37500000  0.18750000       0.006
  -0.37500000  0.43750000  0.18750000       0.006
  -0.31250000  0.43750000  0.18750000       0.012
  -0.25000000  0.43750000  0.18750000       0.006
  -0.31250000  0.50000000  0.18750000       0.003
  -0.25000000  0.50000000  0.25000000       0.001
 
 position of ions in fractional coordinates (direct lattice) 
   0.25000000  0.25000000  0.25000000
   0.75000000  0.75000000  0.75000000
   0.00000000  0.00000000  0.00000000
 
 position of ions in cartesian coordinates  (Angst):
   1.91436228  1.10525758  0.78153513
   5.74308685  3.31577274  2.34460539
   0.00000000  0.00000000  0.00000000
 


--------------------------------------------------------------------------------------------------------


 k-point  1 :   0.0000 0.0000 0.0000  plane waves:     965
 k-point  2 :   0.0625 0.0000 0.0000  plane waves:     974
 k-point  3 :   0.1250 0.0000 0.0000  plane waves:     986
 k-point  4 :   0.1875 0.0000 0.0000  plane waves:     989
 k-point  5 :   0.2500 0.0000 0.0000  plane waves:     989
 k-point  6 :   0.3125-0.0000-0.0000  plane waves:    1002
 k-point  7 :   0.3750 0.0000 0.0000  plane waves:    1008
 k-point  8 :   0.4375-0.0000-0.0000  plane waves:    1011
 k-point  9 :   0.5000 0.0000 0.0000  plane waves:    1008
 k-point 10 :   0.0625 0.0625 0.0000  plane waves:     977
 k-point 11 :   0.1250 0.0625 0.0000  plane waves:     988
 k-point 12 :   0.1875 0.0625-0.0000  plane waves:     989
 k-point 13 :   0.2500 0.0625 0.0000  plane waves:     995
 k-point 14 :   0.3125 0.0625-0.0000  plane waves:     997
 k-point 15 :   0.3750 0.0625-0.0000  plane waves:    1009
 k-point 16 :   0.4375 0.0625-0.0000  plane waves:    1009
 k-point 17 :   0.5000 0.0625 0.0000  plane waves:    1005
 k-point 18 :  -0.4375 0.0625 0.0000  plane waves:    1009
 k-point 19 :  -0.3750 0.0625 0.0000  plane waves:    1013
 k-point 20 :  -0.3125 0.0625 0.0000  plane waves:    1008
 k-point 21 :  -0.2500 0.0625 0.0000  plane waves:    1000
 k-point 22 :  -0.1875 0.0625 0.0000  plane waves:     994
 k-point 23 :  -0.1250 0.0625 0.0000  plane waves:     988
 k-point 24 :  -0.0625 0.0625-0.0000  plane waves:     977
 k-point 25 :   0.1250 0.1250 0.0000  plane waves:     986
 k-point 26 :   0.1875 0.1250-0.0000  plane waves:     991
 k-point 27 :   0.2500 0.1250 0.0000  plane waves:     998
 k-point 28 :   0.3125 0.1250 0.0000  plane waves:    1004
 k-point 29 :   0.3750 0.1250-0.0000  plane waves:    1004
 k-point 30 :   0.4375 0.1250 0.0000  plane waves:    1009
 k-point 31 :   0.5000 0.1250 0.0000  plane waves:    1011
 k-point 32 :  -0.4375 0.1250 0.0000  plane waves:    1006
 k-point 33 :  -0.3750 0.1250 0.0000  plane waves:    1008
 k-point 34 :  -0.3125 0.1250 0.0000  plane waves:    1011
 k-point 35 :  -0.2500 0.1250 0.0000  plane waves:    1001
 k-point 36 :  -0.1875 0.1250 0.0000  plane waves:     997
 k-point 37 :  -0.1250 0.1250-0.0000  plane waves:     997
 k-point 38 :   0.1875 0.1875 0.0000  plane waves:     990
 k-point 39 :   0.2500 0.1875 0.0000  plane waves:     993
 k-point 40 :   0.3125 0.1875 0.0000  plane waves:    1007
 k-point 41 :   0.3750 0.1875-0.0000  plane waves:    1008
 k-point 42 :   0.4375 0.1875 0.0000  plane waves:    1012
 k-point 43 :   0.5000 0.1875 0.0000  plane waves:    1009
 k-point 44 :  -0.4375 0.1875 0.0000  plane waves:    1010
 k-point 45 :  -0.3750 0.1875 0.0000  plane waves:    1010
 k-point 46 :  -0.3125 0.1875 0.0000  plane waves:    1010
 k-point 47 :  -0.2500 0.1875-0.0000  plane waves:    1004
 k-point 48 :  -0.1875 0.1875 0.0000  plane waves:    1005
 k-point 49 :   0.2500 0.2500 0.0000  plane waves:     998
 k-point 50 :   0.3125 0.2500 0.0000  plane waves:    1010
 k-point 51 :   0.3750 0.2500-0.0000  plane waves:    1012
 k-point 52 :   0.4375 0.2500-0.0000  plane waves:    1014
 k-point 53 :   0.5000 0.2500 0.0000  plane waves:    1012
 k-point 54 :  -0.4375 0.2500 0.0000  plane waves:    1008
 k-point 55 :  -0.3750 0.2500 0.0000  plane waves:    1001
 k-point 56 :  -0.3125 0.2500 0.0000  plane waves:    1007
 k-point 57 :  -0.2500 0.2500-0.0000  plane waves:    1003
 k-point 58 :   0.3125 0.3125 0.0000  plane waves:    1018
 k-point 59 :   0.3750 0.3125-0.0000  plane waves:    1019
 k-point 60 :   0.4375 0.3125 0.0000  plane waves:    1010
 k-point 61 :   0.5000 0.3125 0.0000  plane waves:    1008
 k-point 62 :  -0.4375 0.3125 0.0000  plane waves:    1009
 k-point 63 :  -0.3750 0.3125 0.0000  plane waves:    1003
 k-point 64 :  -0.3125 0.3125-0.0000  plane waves:    1011
 k-point 65 :   0.3750 0.3750 0.0000  plane waves:    1018
 k-point 66 :   0.4375 0.3750 0.0000  plane waves:    1008
 k-point 67 :   0.5000 0.3750 0.0000  plane waves:    1007
 k-point 68 :  -0.4375 0.3750-0.0000  plane waves:    1013
 k-point 69 :  -0.3750 0.3750 0.0000  plane waves:    1011
 k-point 70 :   0.4375 0.4375 0.0000  plane waves:    1006
 k-point 71 :   0.5000 0.4375 0.0000  plane waves:    1003
 k-point 72 :  -0.4375 0.4375 0.0000  plane waves:    1005
 k-point 73 :   0.5000 0.5000 0.0000  plane waves:     998
 k-point 74 :   0.1875 0.1250 0.0625  plane waves:     990
 k-point 75 :   0.2500 0.1250 0.0625  plane waves:     997
 k-point 76 :   0.3125 0.1250 0.0625  plane waves:     995
 k-point 77 :   0.3750 0.1250 0.0625  plane waves:    1006
 k-point 78 :   0.4375 0.1250 0.0625  plane waves:    1011
 k-point 79 :   0.5000 0.1250 0.0625  plane waves:    1013
 k-point 80 :  -0.4375 0.1250 0.0625  plane waves:    1012
 k-point 81 :   0.2500 0.1875 0.0625  plane waves:     993
 k-point 82 :   0.3125 0.1875 0.0625  plane waves:    1002
 k-point 83 :   0.3750 0.1875 0.0625  plane waves:    1007
 k-point 84 :   0.4375 0.1875 0.0625  plane waves:    1010
 k-point 85 :   0.5000 0.1875 0.0625  plane waves:    1007
 k-point 86 :  -0.4375 0.1875 0.0625  plane waves:    1008
 k-point 87 :  -0.3750 0.1875 0.0625  plane waves:    1013
 k-point 88 :  -0.3125 0.1875 0.0625  plane waves:    1011
 k-point 89 :  -0.2500 0.1875 0.0625  plane waves:    1010
 k-point 90 :  -0.1875 0.1875 0.0625  plane waves:    1007
 k-point 91 :  -0.1250 0.1875 0.0625  plane waves:    1003
 k-point 92 :   0.3125 0.2500 0.0625  plane waves:    1000
 k-point 93 :   0.3750 0.2500 0.0625  plane waves:    1010
 k-point 94 :   0.4375 0.2500 0.0625  plane waves:    1012
 k-point 95 :   0.5000 0.2500 0.0625  plane waves:    1012
 k-point 96 :  -0.4375 0.2500 0.0625  plane waves:    1006
 k-point 97 :  -0.3750 0.2500 0.0625  plane waves:    1008
 k-point 98 :  -0.3125 0.2500 0.0625  plane waves:    1007
 k-point 99 :  -0.2500 0.2500 0.0625  plane waves:    1010
 k-point ** :  -0.1875 0.2500 0.0625  plane waves:    1007
 k-point ** :   0.3750 0.3125 0.0625  plane waves:    1018
 k-point ** :   0.4375 0.3125 0.0625  plane waves:    1018
 k-point ** :   0.5000 0.3125 0.0625  plane waves:    1016
 k-point ** :  -0.4375 0.3125 0.0625  plane waves:    1012
 k-point ** :  -0.3750 0.3125 0.0625  plane waves:    1011
 k-point ** :  -0.3125 0.3125 0.0625  plane waves:    1007
 k-point ** :  -0.2500 0.3125 0.0625  plane waves:    1014
 k-point ** :   0.4375 0.3750 0.0625  plane waves:    1014
 k-point ** :   0.5000 0.3750 0.0625  plane waves:    1011
 k-point ** :  -0.4375 0.3750 0.0625  plane waves:    1014
 k-point ** :  -0.3750 0.3750 0.0625  plane waves:    1008
 k-point ** :  -0.3125 0.3750 0.0625  plane waves:    1006
 k-point ** :   0.5000 0.4375 0.0625  plane waves:    1010
 k-point ** :  -0.4375 0.4375 0.0625  plane waves:    1008
 k-point ** :  -0.3750 0.4375 0.0625  plane waves:    1006
 k-point ** :  -0.4375 0.5000 0.0625  plane waves:    1006
 k-point ** :   0.3750 0.2500 0.1250  plane waves:    1009
 k-point ** :   0.4375 0.2500 0.1250  plane waves:    1014
 k-point ** :   0.5000 0.2500 0.1250  plane waves:    1012
 k-point ** :  -0.4375 0.2500 0.1250  plane waves:    1010
 k-point ** :  -0.3750 0.2500 0.1250  plane waves:    1010
 k-point ** :   0.4375 0.3125 0.1250  plane waves:    1022
 k-point ** :   0.5000 0.3125 0.1250  plane waves:    1017
 k-point ** :  -0.4375 0.3125 0.1250  plane waves:    1008
 k-point ** :  -0.3750 0.3125 0.1250  plane waves:    1013
 k-point ** :  -0.3125 0.3125 0.1250  plane waves:    1008
 k-point ** :  -0.2500 0.3125 0.1250  plane waves:    1015
 k-point ** :  -0.1875 0.3125 0.1250  plane waves:    1013
 k-point ** :   0.5000 0.3750 0.1250  plane waves:    1012
 k-point ** :  -0.4375 0.3750 0.1250  plane waves:    1011
 k-point ** :  -0.3750 0.3750 0.1250  plane waves:    1011
 k-point ** :  -0.3125 0.3750 0.1250  plane waves:    1012
 k-point ** :  -0.2500 0.3750 0.1250  plane waves:    1013
 k-point ** :  -0.4375 0.4375 0.1250  plane waves:    1007
 k-point ** :  -0.3750 0.4375 0.1250  plane waves:    1009
 k-point ** :  -0.3125 0.4375 0.1250  plane waves:    1007
 k-point ** :  -0.3750 0.5000 0.1250  plane waves:    1004
 k-point ** :  -0.4375 0.3750 0.1875  plane waves:    1021
 k-point ** :  -0.3750 0.3750 0.1875  plane waves:    1013
 k-point ** :  -0.3125 0.3750 0.1875  plane waves:    1008
 k-point ** :  -0.3750 0.4375 0.1875  plane waves:    1014
 k-point ** :  -0.3125 0.4375 0.1875  plane waves:    1017
 k-point ** :  -0.2500 0.4375 0.1875  plane waves:    1017
 k-point ** :  -0.3125 0.5000 0.1875  plane waves:    1016
 k-point ** :  -0.2500 0.5000 0.2500  plane waves:    1036

 maximum and minimum number of plane-waves per node :      1036      965

 maximum number of plane-waves:      1036
 maximum index in each direction: 
   IXMAX=    7   IYMAX=    6   IZMAX=    6
   IXMIN=   -7   IYMIN=   -7   IZMIN=   -7


 serial   3D FFT for wavefunctions
 parallel 3D FFT for charge:
    minimum data exchange during FFTs selected (reduces bandwidth)


 total amount of memory used by VASP MPI-rank0   113534. kBytes
=======================================================================

   base      :      30000. kBytes
   nonl-proj :      43396. kBytes
   fftplans  :        933. kBytes
   grid      :       3644. kBytes
   one-center:         93. kBytes
   wavefun   :      35468. kBytes
 
     INWAV:  cpu time    0.0000: real time    0.0002
 Broyden mixing: mesh for mixing (old mesh)
   NGX = 13   NGY = 13   NGZ = 13
  (NGX  = 40   NGY  = 40   NGZ  = 40)
  gives a total of   2197 points

 initial charge density was supplied:
 charge density of overlapping atoms calculated
 number of electron      26.0000000 magnetization       5.5000000
 keeping initial charge density in first step


--------------------------------------------------------------------------------------------------------


 Maximum index for augmentation-charges         2759 (set IRDMAX)


--------------------------------------------------------------------------------------------------------


 First call to EWALD:  gamma=   0.520
 Maximum number of real-space cells 3x 3x 3
 Maximum number of reciprocal cells 3x 3x 3

    FEWALD:  cpu time    0.0019: real time    0.0019


--------------------------------------- Iteration      1(   1)  ---------------------------------------


    POTLOK:  cpu time    0.0258: real time    0.0262
    SETDIJ:  cpu time    0.0060: real time    0.0061
     EDDAV:  cpu time    4.7382: real time    4.7770
 BZINTS: Fermi energy: 17.348878; 26.000000 electrons
         Band energy: 327.803704;  BLOECHL correction: -0.131270
       DOS:  cpu time    0.0370: real time    0.0371
    --------------------------------------------
      LOOP:  cpu time    4.8070: real time    4.8464

 eigenvalue-minimisations  : 12324
 total energy-change (2. order) : 0.1499261E+03  (-0.1152637E+04)
 number of electron      26.0000000 magnetization       5.5000000
 augmentation part       26.0000000 magnetization       5.5000000

 Free energy of the ion-electron system (eV)
  ---------------------------------------------------
  alpha Z        PSCENC =       118.26393131
  Ewald energy   TEWEN  =     -1919.66670195
  -Hartree energ DENC   =      -521.41182699
  -exchange      EXHF   =         0.00000000
  -V(xc)+E(xc)   XCENC  =        37.63221927
  PAW double counting   =      1995.61167851    -2109.34791434
  entropy T*S    EENTRO =         0.00000000
  eigenvalues    EBANDS =       327.80370440
  atomic energy  EATOM  =      2221.04103146
  Solvation  Ediel_sol  =         0.00000000
  ---------------------------------------------------
  free energy    TOTEN  =       149.92612167 eV

  energy without entropy =      149.92612167  energy(sigma->0) =      149.92612167


--------------------------------------------------------------------------------------------------------




--------------------------------------- Iteration      1(   2)  ---------------------------------------


     EDDAV:  cpu time    4.5976: real time    4.6603
 BZINTS: Fermi energy:  8.746328; 26.000000 electrons
         Band energy: 160.188336;  BLOECHL correction: -0.029317
       DOS:  cpu time    0.0378: real time    0.0380
    --------------------------------------------
      LOOP:  cpu time    4.6354: real time    4.6984

 eigenvalue-minimisations  : 12198
 total energy-change (2. order) :-0.1676154E+03  (-0.1591197E+03)
 number of electron      26.0000000 magnetization       5.5000000
 augmentation part       26.0000000 magnetization       5.5000000

 Free energy of the ion-electron system (eV)
  ---------------------------------------------------
  alpha Z        PSCENC =       118.26393131
  Ewald energy   TEWEN  =     -1919.66670195
  -Hartree energ DENC   =      -521.41182699
  -exchange      EXHF   =         0.00000000
  -V(xc)+E(xc)   XCENC  =        37.63221927
  PAW double counting   =      1995.61167851    -2109.34791434
  entropy T*S    EENTRO =         0.00000000
  eigenvalues    EBANDS =       160.18833648
  atomic energy  EATOM  =      2221.04103146
  Solvation  Ediel_sol  =         0.00000000
  ---------------------------------------------------
  free energy    TOTEN  =       -17.68924625 eV

  energy without entropy =      -17.68924625  energy(sigma->0) =      -17.68924625


--------------------------------------------------------------------------------------------------------




--------------------------------------- Iteration      1(   3)  ---------------------------------------


     EDDAV:  cpu time    4.7574: real time    4.7976
 BZINTS: Fermi energy:  8.439564; 26.000000 electrons
         Band energy: 154.691050;  BLOECHL correction: -0.009260
       DOS:  cpu time    0.0369: real time    0.0371
    --------------------------------------------
      LOOP:  cpu time    4.7944: real time    4.8347

 eigenvalue-minimisations  : 12960
 total energy-change (2. order) :-0.5497287E+01  (-0.5293390E+01)
 number of electron      26.0000000 magnetization       5.5000000
 augmentation part       26.0000000 magnetization       5.5000000

 Free energy of the ion-electron system (eV)
  ---------------------------------------------------
  alpha Z        PSCENC =       118.26393131
  Ewald energy   TEWEN  =     -1919.66670195
  -Hartree energ DENC   =      -521.41182699
  -exchange      EXHF   =         0.00000000
  -V(xc)+E(xc)   XCENC  =        37.63221927
  PAW double counting   =      1995.61167851    -2109.34791434
  entropy T*S    EENTRO =         0.00000000
  eigenvalues    EBANDS =       154.69104961
  atomic energy  EATOM  =      2221.04103146
  Solvation  Ediel_sol  =         0.00000000
  ---------------------------------------------------
  free energy    TOTEN  =       -23.18653312 eV

  energy without entropy =      -23.18653312  energy(sigma->0) =      -23.18653312


--------------------------------------------------------------------------------------------------------




--------------------------------------- Iteration      1(   4)  ---------------------------------------


     EDDAV:  cpu time    5.1471: real time    5.1895
 BZINTS: Fermi energy:  8.436475; 26.000000 electrons
         Band energy: 154.623615;  BLOECHL correction: -0.009237
       DOS:  cpu time    0.0368: real time    0.0370
    --------------------------------------------
      LOOP:  cpu time    5.1839: real time    5.2265

 eigenvalue-minimisations  : 14379
 total energy-change (2. order) :-0.6743507E-01  (-0.6740212E-01)
 number of electron      26.0000000 magnetization       5.5000000
 augmentation part       26.0000000 magnetization       5.5000000

 Free energy of the ion-electron system (eV)
  ---------------------------------------------------
  alpha Z        PSCENC =       118.26393131
  Ewald energy   TEWEN  =     -1919.66670195
  -Hartree energ DENC   =      -521.41182699
  -exchange      EXHF   =         0.00000000
  -V(xc)+E(xc)   XCENC  =        37.63221927
  PAW double counting   =      1995.61167851    -2109.34791434
  entropy T*S    EENTRO =         0.00000000
  eigenvalues    EBANDS =       154.62361453
  atomic energy  EATOM  =      2221.04103146
  Solvation  Ediel_sol  =         0.00000000
  ---------------------------------------------------
  free energy    TOTEN  =       -23.25396820 eV

  energy without entropy =      -23.25396820  energy(sigma->0) =      -23.25396820


--------------------------------------------------------------------------------------------------------




--------------------------------------- Iteration      1(   5)  ---------------------------------------


     EDDAV:  cpu time    5.3450: real time    5.3872
 BZINTS: Fermi energy:  8.436357; 26.000000 electrons
         Band energy: 154.621223;  BLOECHL correction: -0.009237
       DOS:  cpu time    0.0370: real time    0.0371
    CHARGE:  cpu time    0.2869: real time    0.2891
    MIXING:  cpu time    0.0008: real time    0.0008
    --------------------------------------------
      LOOP:  cpu time    5.6697: real time    5.7144

 eigenvalue-minimisations  : 15420
 total energy-change (2. order) :-0.2391787E-02  (-0.2391768E-02)
 number of electron      26.0000019 magnetization       3.7855156
 augmentation part       12.6770265 magnetization       2.7664993

 Broyden mixing:
  rms(total) = 0.16876E+01    rms(broyden)= 0.16875E+01
  rms(prec ) = 0.39551E+01
  weight for this iteration     100.00

 Free energy of the ion-electron system (eV)
  ---------------------------------------------------
  alpha Z        PSCENC =       118.26393131
  Ewald energy   TEWEN  =     -1919.66670195
  -Hartree energ DENC   =      -521.41182699
  -exchange      EXHF   =         0.00000000
  -V(xc)+E(xc)   XCENC  =        37.63221927
  PAW double counting   =      1995.61167851    -2109.34791434
  entropy T*S    EENTRO =         0.00000000
  eigenvalues    EBANDS =       154.62122274
  atomic energy  EATOM  =      2221.04103146
  Solvation  Ediel_sol  =         0.00000000
  ---------------------------------------------------
  free energy    TOTEN  =       -23.25635998 eV

  energy without entropy =      -23.25635998  energy(sigma->0) =      -23.25635998


--------------------------------------------------------------------------------------------------------




--------------------------------------- Iteration      1(   6)  ---------------------------------------


    POTLOK:  cpu time    0.0229: real time    0.0233
    SETDIJ:  cpu time    0.0057: real time    0.0057
     EDDAV:  cpu time    4.9195: real time    4.9628
 BZINTS: Fermi energy:  5.247883; 26.000000 electrons
         Band energy:  84.986118;  BLOECHL correction: -0.010810
       DOS:  cpu time    0.0351: real time    0.0353
    CHARGE:  cpu time    0.3026: real time    0.3045
    MIXING:  cpu time    0.0008: real time    0.0009
    --------------------------------------------
      LOOP:  cpu time    5.2867: real time    5.3325

 eigenvalue-minimisations  : 13149
 total energy-change (2. order) : 0.6321668E+00  (-0.3156894E+01)
 number of electron      26.0000036 magnetization       3.6338575
 augmentation part       15.5057125 magnetization       3.0212819

 Broyden mixing:
  rms(total) = 0.19769E+01    rms(broyden)= 0.19768E+01
  rms(prec ) = 0.54503E+01
  weight for this iteration     100.00

 eigenvalues of (default mixing * dielectric matrix)
  average eigenvalue GAMMA=   0.3886
  0.3886

 Free energy of the ion-electron system (eV)
  ---------------------------------------------------
  alpha Z        PSCENC =       118.26393131
  Ewald energy   TEWEN  =     -1919.66670195
  -Hartree energ DENC   =      -462.09483005
  -exchange      EXHF   =         0.00000000
  -V(xc)+E(xc)   XCENC  =        34.50196831
  PAW double counting   =      2137.28429283    -2236.94000356
  entropy T*S    EENTRO =         0.00000000
  eigenvalues    EBANDS =        84.98611849
  atomic energy  EATOM  =      2221.04103146
  Solvation  Ediel_sol  =         0.00000000
  ---------------------------------------------------
  free energy    TOTEN  =       -22.62419315 eV

  energy without entropy =      -22.62419315  energy(sigma->0) =      -22.62419315


--------------------------------------------------------------------------------------------------------




--------------------------------------- Iteration      1(   7)  ---------------------------------------


    POTLOK:  cpu time    0.0211: real time    0.0215
    SETDIJ:  cpu time    0.0060: real time    0.0060
     EDDAV:  cpu time    4.9093: real time    4.9475
 BZINTS: Fermi energy:  6.510037; 26.000000 electrons
         Band energy: 101.856918;  BLOECHL correction: -0.008550
       DOS:  cpu time    0.0358: real time    0.0360
    CHARGE:  cpu time    0.3054: real time    0.3072
    MIXING:  cpu time    0.0008: real time    0.0008
    --------------------------------------------
      LOOP:  cpu time    5.2783: real time    5.3190

 eigenvalue-minimisations  : 13155
 total energy-change (2. order) :-0.3116344E+01  (-0.6111567E+01)
 number of electron      26.0000001 magnetization       3.8645505
 augmentation part       14.6620196 magnetization       3.0092009

 Broyden mixing:
  rms(total) = 0.32168E+01    rms(broyden)= 0.32167E+01
  rms(prec ) = 0.86369E+01
  weight for this iteration     100.00

 eigenvalues of (default mixing * dielectric matrix)
  average eigenvalue GAMMA=   0.4006
  0.6702  0.1309

 Free energy of the ion-electron system (eV)
  ---------------------------------------------------
  alpha Z        PSCENC =       118.26393131
  Ewald energy   TEWEN  =     -1919.66670195
  -Hartree energ DENC   =      -474.72031579
  -exchange      EXHF   =         0.00000000
  -V(xc)+E(xc)   XCENC  =        35.20625779
  PAW double counting   =      2200.81881149    -2308.54046889
  entropy T*S    EENTRO =         0.00000000
  eigenvalues    EBANDS =       101.85691776
  atomic energy  EATOM  =      2221.04103146
  Solvation  Ediel_sol  =         0.00000000
  ---------------------------------------------------
  free energy    TOTEN  =       -25.74053682 eV

  energy without entropy =      -25.74053682  energy(sigma->0) =      -25.74053682


--------------------------------------------------------------------------------------------------------




--------------------------------------- Iteration      1(   8)  ---------------------------------------


    POTLOK:  cpu time    0.0209: real time    0.0212
    SETDIJ:  cpu time    0.0055: real time    0.0056
     EDDAV:  cpu time    5.1175: real time    5.1552
 BZINTS: Fermi energy:  6.481613; 26.000000 electrons
         Band energy: 115.799741;  BLOECHL correction: -0.009691
       DOS:  cpu time    0.0372: real time    0.0373
    CHARGE:  cpu time    0.3059: real time    0.3076
    MIXING:  cpu time    0.0009: real time    0.0009
    --------------------------------------------
      LOOP:  cpu time    5.4878: real time    5.5279

 eigenvalue-minimisations  : 14568
 total energy-change (2. order) : 0.5301344E+01  (-0.6566507E+00)
 number of electron      26.0000017 magnetization       4.7783453
 augmentation part       14.3571006 magnetization       3.9459905

 Broyden mixing:
  rms(total) = 0.74714E+00    rms(broyden)= 0.74707E+00
  rms(prec ) = 0.17706E+01
  weight for this iteration     100.00

 eigenvalues of (default mixing * dielectric matrix)
  average eigenvalue GAMMA=   0.4302
  0.7065  0.4120  0.1722

 Free energy of the ion-electron system (eV)
  ---------------------------------------------------
  alpha Z        PSCENC =       118.26393131
  Ewald energy   TEWEN  =     -1919.66670195
  -Hartree energ DENC   =      -480.39010266
  -exchange      EXHF   =         0.00000000
  -V(xc)+E(xc)   XCENC  =        35.40051922
  PAW double counting   =      2263.12059157    -2374.00820284
  entropy T*S    EENTRO =         0.00000000
  eigenvalues    EBANDS =       115.79974077
  atomic energy  EATOM  =      2221.04103146
  Solvation  Ediel_sol  =         0.00000000
  ---------------------------------------------------
  free energy    TOTEN  =       -20.43919312 eV

  energy without entropy =      -20.43919312  energy(sigma->0) =      -20.43919312


--------------------------------------------------------------------------------------------------------




--------------------------------------- Iteration      1(   9)  ---------------------------------------


    POTLOK:  cpu time    0.0208: real time    0.0212
    SETDIJ:  cpu time    0.0056: real time    0.0056
     EDDAV:  cpu time    5.4336: real time    5.4745
 BZINTS: Fermi energy:  6.470898; 26.000000 electrons
         Band energy: 114.543138;  BLOECHL correction: -0.010338
       DOS:  cpu time    0.0352: real time    0.0353
    CHARGE:  cpu time    0.3065: real time    0.3082
    MIXING:  cpu time    0.0009: real time    0.0009
    --------------------------------------------
      LOOP:  cpu time    5.8026: real time    5.8458

 eigenvalue-minimisations  : 15261
 total energy-change (2. order) :-0.1288997E+00  (-0.1008271E+00)
 number of electron      26.0000020 magnetization       6.5681310
 augmentation part       14.3928484 magnetization       5.6746631

 Broyden mixing:
  rms(total) = 0.46128E+00    rms(broyden)= 0.46126E+00
  rms(prec ) = 0.81401E+00
  weight for this iteration     100.00

 eigenvalues of (default mixing * dielectric matrix)
  average eigenvalue GAMMA=   0.6863
  0.1621  0.9832  0.9832  0.6167

 Free energy of the ion-electron system (eV)
  ---------------------------------------------------
  alpha Z        PSCENC =       118.26393131
[...]
     10       6.2722      1.00000
     11       6.5265      0.52538
     12       6.6745      0.00000
     13       7.8282      0.00000
     14       7.8827      0.00000
     15       8.3005      0.00000
     16       8.3716      0.00000
     17       8.9214      0.00000
     18       9.7487      0.00000
     19      10.4779      0.00000
     20      17.6042      0.00000
     21      18.4336      0.00000

 k-point   140 :      -0.3125    0.3750    0.1875
  band No.  band energies     occupation 
      1       3.1647      1.00000
      2       3.3392      1.00000
      3       4.0027      1.00000
      4       4.0441      1.00000
      5       5.0142      1.00000
      6       5.3258      1.00000
      7       5.4535      1.00000
      8       5.5648      1.00000
      9       5.9294      1.00000
     10       6.3701      1.00000
     11       6.4341      0.95685
     12       6.6778      0.00000
     13       7.8481      0.00000
     14       7.8873      0.00000
     15       8.3527      0.00000
     16       8.4062      0.00000
     17       8.6517      0.00000
     18       9.8933      0.00000
     19      10.1830      0.00000
     20      17.5936      0.00000
     21      18.6231      0.00000

 k-point   141 :      -0.3750    0.4375    0.1875
  band No.  band energies     occupation 
      1       2.9863      1.00000
      2       3.6262      1.00000
      3       3.7416      1.00000
      4       4.0850      1.00000
      5       5.0394      1.00000
      6       5.0827      1.00000
      7       5.5205      1.00000
      8       5.7567      1.00000
      9       6.1787      1.00000
     10       6.2095      1.01295
     11       6.7088     -0.00541
     12       6.7576      0.00000
     13       7.7658      0.00000
     14       7.9352      0.00000
     15       8.4183      0.00000
     16       8.4797      0.00000
     17       8.9460      0.00000
     18       9.3360      0.00000
     19       9.8166      0.00000
     20      17.5025      0.00000
     21      17.7695      0.00000

 k-point   142 :      -0.3125    0.4375    0.1875
  band No.  band energies     occupation 
      1       3.3315      1.00000
      2       3.4623      1.00000
      3       3.8300      1.00000
      4       3.9247      1.00000
      5       5.0544      1.00000
      6       5.2170      1.00000
      7       5.5679      1.00000
      8       5.7138      1.00000
      9       5.9485      1.00000
     10       6.2709      1.00000
     11       6.6638     -0.04117
     12       6.7270      0.00000
     13       7.8083      0.00000
     14       7.9343      0.00000
     15       8.4769      0.00000
     16       8.6100      0.00000
     17       8.6690      0.00000
     18       9.3435      0.00000
     19       9.5463      0.00000
     20      17.7271      0.00000
     21      18.7443      0.00000

 k-point   143 :      -0.2500    0.4375    0.1875
  band No.  band energies     occupation 
      1       3.1818      1.00000
      2       3.5598      1.00000
      3       3.8337      1.00000
      4       3.9859      1.00000
      5       5.0526      1.00000
      6       5.3627      1.00000
      7       5.3929      1.00000
      8       5.6748      1.00000
      9       5.9146      1.00000
     10       6.3160      1.00000
     11       6.6186     -0.00868
     12       6.6552      0.00000
     13       7.8487      0.00000
     14       7.8891      0.00000
     15       8.3789      0.00000
     16       8.4729      0.00000
     17       8.9116      0.00000
     18       9.2402      0.00000
     19       9.9381      0.00000
     20      17.8397      0.00000
     21      19.0340      0.00000

 k-point   144 :      -0.3125    0.5000    0.1875
  band No.  band energies     occupation 
      1       3.3646      1.00000
      2       3.5542      1.00000
      3       3.7065      1.00000
      4       3.8713      1.00000
      5       5.0268      1.00000
      6       5.0977      1.00000
      7       5.6580      1.00000
      8       5.7776      1.00000
      9       6.1660      1.00000
     10       6.1665      1.02293
     11       6.7348      0.00000
     12       6.8356      0.00000
     13       7.7479      0.00000
     14       8.0197      0.00000
     15       8.5380      0.00000
     16       8.6957      0.00000
     17       8.9647      0.00000
     18       8.9933      0.00000
     19       9.1132      0.00000
     20      17.4611      0.00000
     21      17.7934      0.00000

 k-point   145 :      -0.2500    0.5000    0.2500
  band No.  band energies     occupation 
      1       3.4861      1.00000
      2       3.4861      1.00000
      3       3.8018      1.00000
      4       3.8040      1.00000
      5       5.1163      1.00000
      6       5.3524      1.00000
      7       5.3524      1.00000
      8       5.8836      1.00000
      9       5.8836      1.00000
     10       6.1853      1.00000
     11       6.6921      0.00000
     12       6.7477      0.00000
     13       7.8744      0.00000
     14       7.8744      0.00000
     15       8.5634      0.00000
     16       8.6980      0.00000
     17       8.9517      0.00000
     18       9.0792      0.00000
     19       9.0792      0.00000
     20      18.5568      0.00000
     21      18.9884      0.00000


--------------------------------------------------------------------------------------------------------


 soft charge-density along one line, spin component           1
         0         1         2         3         4         5         6         7         8         9
 total charge-density along one line
 
 soft charge-density along one line, spin component           2
         0         1         2         3         4         5         6         7         8         9
 total charge-density along one line
 
 pseudopotential strength for first ion, spin component:           1
 -3.063  -0.000   0.000   0.022   0.000  -3.609  -0.000   0.000
 -0.000  -3.079  -0.000  -0.000   0.022  -0.000  -3.625  -0.000
  0.000  -0.000  -3.047  -0.000   0.000   0.000  -0.000  -3.594
  0.022  -0.000  -0.000  -3.079  -0.000   0.021  -0.000  -0.000
  0.000   0.022   0.000  -0.000  -3.063   0.000   0.021   0.000
 -3.609  -0.000   0.000   0.021   0.000  -4.100  -0.000   0.000
 -0.000  -3.625  -0.000  -0.000   0.021  -0.000  -4.114  -0.000
  0.000  -0.000  -3.594  -0.000   0.000   0.000  -0.000  -4.085
  0.021  -0.000  -0.000  -3.625  -0.000   0.020  -0.000  -0.000
  0.000   0.021   0.000  -0.000  -3.609   0.000   0.020   0.000
  0.000   0.000  -0.000   0.000   0.000   0.000   0.000  -0.000
  0.000   0.000  -0.000   0.000   0.000   0.000   0.000  -0.000
 -0.000  -0.006  -0.000   0.000  -0.009  -0.000  -0.006  -0.000
  0.000  -0.000   0.011  -0.000   0.000   0.000  -0.000   0.011
 -0.009   0.000  -0.000  -0.006  -0.000  -0.009   0.000  -0.000
 -0.000  -0.007  -0.000   0.000  -0.010  -0.000  -0.007  -0.000
  0.000  -0.000   0.012  -0.000   0.000   0.000  -0.000   0.012
 -0.010   0.000  -0.000  -0.007  -0.000  -0.010   0.000  -0.000
 pseudopotential strength for first ion, spin component:           2
 -1.705   0.000  -0.000  -0.019  -0.000  -2.309   0.000  -0.000
  0.000  -1.692   0.000   0.000  -0.019   0.000  -2.296   0.000
 -0.000   0.000  -1.718   0.000  -0.000  -0.000   0.000  -2.321
 -0.019   0.000   0.000  -1.692   0.000  -0.018   0.000   0.000
 -0.000  -0.019  -0.000   0.000  -1.705  -0.000  -0.018  -0.000
 -2.309   0.000  -0.000  -0.018  -0.000  -2.854   0.000  -0.000
  0.000  -2.296   0.000   0.000  -0.018   0.000  -2.841   0.000
 -0.000   0.000  -2.321   0.000  -0.000  -0.000   0.000  -2.866
 -0.018   0.000   0.000  -2.296   0.000  -0.018   0.000   0.000
 -0.000  -0.018  -0.000   0.000  -2.309  -0.000  -0.018  -0.000
 -0.000  -0.000   0.000  -0.000  -0.000  -0.000  -0.000   0.000
 -0.000  -0.000   0.000  -0.000  -0.000  -0.000  -0.000   0.000
 -0.000  -0.001   0.000   0.000  -0.001  -0.000  -0.001   0.000
  0.000  -0.000   0.001  -0.000   0.000   0.000  -0.000   0.001
 -0.001   0.000   0.000  -0.001  -0.000  -0.001   0.000   0.000
 -0.000   0.001   0.000   0.000   0.001  -0.000   0.001   0.000
  0.000  -0.000  -0.001  -0.000   0.000   0.000  -0.000  -0.001
  0.001   0.000   0.000   0.001  -0.000   0.001   0.000   0.000
 total augmentation occupancy for first ion, spin component:           1
  2.638   0.000  -0.000  -0.102  -0.000  -1.217  -0.000   0.000   0.148   0.000   0.000  -0.000  -0.000   0.000   0.023   0.000
  0.000   2.710   0.000   0.000  -0.102  -0.000  -1.321  -0.000  -0.000   0.148   0.000  -0.000   0.016  -0.000   0.000  -0.003
 -0.000   0.000   2.566   0.000   0.000   0.000  -0.000  -1.112  -0.000  -0.000  -0.000   0.000   0.000  -0.028  -0.000  -0.000
 -0.102   0.000   0.000   2.710   0.000   0.148  -0.000  -0.000  -1.321  -0.000   0.000  -0.000   0.000  -0.000   0.016  -0.000
 -0.000  -0.102   0.000   0.000   2.638   0.000   0.148  -0.000  -0.000  -1.217  -0.000   0.000   0.023  -0.000   0.000  -0.004
 -1.217  -0.000   0.000   0.148   0.000   1.353   0.000  -0.000  -0.165  -0.000  -0.000   0.000   0.000  -0.000  -0.105  -0.000
 -0.000  -1.321  -0.000  -0.000   0.148   0.000   1.470   0.000   0.000  -0.165  -0.000   0.000  -0.075   0.000  -0.000   0.003
  0.000   0.000  -1.112  -0.000  -0.000  -0.000  -0.000   1.237   0.000   0.000  -0.000   0.000  -0.000   0.129   0.000   0.000
  0.148  -0.000  -0.000  -1.321  -0.000  -0.165   0.000   0.000   1.470   0.000  -0.000   0.000  -0.000   0.000  -0.075   0.000
  0.000   0.148  -0.000  -0.000  -1.217  -0.000  -0.165   0.000   0.000   1.353   0.000  -0.000  -0.105   0.000  -0.000   0.004
  0.000   0.000   0.000   0.000  -0.000  -0.000  -0.000   0.000  -0.000   0.000   2.050  -0.181  -0.000   0.000   0.000  -0.000
 -0.000   0.000   0.000  -0.000   0.000   0.000   0.000  -0.000   0.000  -0.000  -0.181   0.024  -0.000  -0.000  -0.000  -0.000
 -0.000   0.016   0.000   0.000   0.023   0.000  -0.075  -0.000  -0.000  -0.105   0.000  -0.000   0.233   0.000   0.000  -0.019
  0.000  -0.000  -0.028  -0.000  -0.000  -0.000   0.000   0.129   0.000   0.000   0.000   0.000   0.000   0.233   0.000  -0.000
  0.023   0.000  -0.000   0.016   0.000  -0.105  -0.000   0.000  -0.075  -0.000   0.000  -0.000   0.000   0.000   0.233  -0.000
  0.000  -0.003  -0.000  -0.000  -0.004  -0.000   0.003   0.000   0.000   0.004  -0.000   0.000  -0.019  -0.000  -0.000   0.002
 -0.000   0.000   0.005   0.000   0.000   0.000  -0.000  -0.005  -0.000  -0.000  -0.000  -0.000  -0.000  -0.019  -0.000   0.000
 -0.004  -0.000   0.000  -0.003  -0.000   0.004   0.000  -0.000   0.003   0.000  -0.000   0.000  -0.000  -0.000  -0.019   0.000
 total augmentation occupancy for first ion, spin component:           2
  2.071   0.000  -0.000  -0.157  -0.000  -1.004  -0.000   0.000   0.065   0.000  -0.000   0.000  -0.000   0.000   0.063   0.000
  0.000   2.182   0.000   0.000  -0.157  -0.000  -1.050  -0.000  -0.000   0.065  -0.000   0.000   0.044  -0.000   0.000  -0.002
 -0.000   0.000   1.961   0.000   0.000   0.000  -0.000  -0.957  -0.000  -0.000  -0.000  -0.000   0.000  -0.077  -0.000  -0.000
 -0.157   0.000   0.000   2.182   0.000   0.065  -0.000  -0.000  -1.050  -0.000  -0.000   0.000   0.000  -0.000   0.044  -0.000
 -0.000  -0.157   0.000   0.000   2.071   0.000   0.065  -0.000  -0.000  -1.004   0.000  -0.000   0.063  -0.000   0.000  -0.003
 -1.004  -0.000   0.000   0.065   0.000   0.317   0.000  -0.000  -0.005   0.000   0.000  -0.000   0.000  -0.000  -0.023  -0.000
 -0.000  -1.050  -0.000  -0.000   0.065   0.000   0.320   0.000   0.000  -0.005   0.000  -0.000  -0.017   0.000  -0.000   0.002
  0.000  -0.000  -0.957  -0.000  -0.000  -0.000   0.000   0.314   0.000   0.000   0.000   0.000  -0.000   0.029   0.000   0.000
  0.065  -0.000  -0.000  -1.050  -0.000  -0.005   0.000   0.000   0.320   0.000   0.000  -0.000  -0.000   0.000  -0.017   0.000
  0.000   0.065  -0.000  -0.000  -1.004  -0.000  -0.005   0.000   0.000   0.317  -0.000   0.000  -0.023   0.000  -0.000   0.003
 -0.000  -0.000  -0.000  -0.000   0.000   0.000  -0.000  -0.000   0.000  -0.000  -0.266   0.075   0.000  -0.000   0.000  -0.000
  0.000   0.000  -0.000   0.000  -0.000  -0.000   0.000   0.000  -0.000   0.000   0.075  -0.010  -0.000   0.000  -0.000   0.000
 -0.000   0.044   0.000   0.000   0.063   0.000  -0.017  -0.000  -0.000  -0.023   0.000  -0.000  -0.018  -0.000  -0.000   0.002
  0.000  -0.000  -0.077  -0.000  -0.000  -0.000   0.000   0.029   0.000   0.000   0.000  -0.000  -0.000  -0.018  -0.000   0.000
  0.063   0.000  -0.000   0.044   0.000  -0.023  -0.000   0.000  -0.017  -0.000   0.000   0.000  -0.000  -0.000  -0.018   0.000
  0.000  -0.002  -0.000  -0.000  -0.003  -0.000   0.002   0.000   0.000   0.003   0.000  -0.000   0.002   0.000   0.000  -0.000
 -0.000   0.000   0.004   0.000   0.000   0.000  -0.000  -0.004  -0.000  -0.000  -0.000   0.000   0.000   0.002   0.000  -0.000
 -0.003  -0.000   0.000  -0.002  -0.000   0.003   0.000  -0.000   0.002   0.000  -0.000   0.000   0.000   0.000   0.002  -0.000


------------------------ aborting loop because EDIFF is reached ----------------------------------------


 


 total charge     
 
# of ion       s       p       d       tot
------------------------------------------
    1        0.490   0.401   7.253   8.144
    2        0.490   0.401   7.253   8.144
    3        0.547   0.537   6.291   7.375
--------------------------------------------------
tot          1.528   1.338  20.797  23.663
 


 magnetization (x)
 
# of ion       s       p       d       tot
------------------------------------------
    1       -0.015  -0.029   1.750   1.707
    2       -0.015  -0.029   1.750   1.707
    3       -0.024  -0.045   2.485   2.416
--------------------------------------------------
tot         -0.053  -0.103   5.985   5.829
 
    CHARGE:  cpu time    0.3076: real time    0.3093
    FORLOC:  cpu time    0.0009: real time    0.0009
    FORNL :  cpu time    0.7292: real time    0.7333
    STRESS:  cpu time    1.2816: real time    1.2893
    FORCOR:  cpu time    0.0198: real time    0.0200
    FORHAR:  cpu time    0.0029: real time    0.0030
    MIXING:  cpu time    0.0013: real time    0.0013
    OFIELD:  cpu time    0.0001: real time    0.0001

  FORCE on cell =-STRESS in cart. coord.  units (eV):
  Direction    XX          YY          ZZ          XY          YZ          ZX
  --------------------------------------------------------------------------------------
  Alpha Z   118.26393   118.26393   118.26393
  Ewald    -639.88933  -639.88933  -639.88933    -0.00000     0.00000    -0.00000
  Hartree   158.28332   158.28332   158.28332     0.00000     0.00000     0.00000
  E(xc)    -131.90956  -131.90947  -131.90944    -0.00008    -0.00003    -0.00006
  Local     -41.43350   -41.43393   -41.43404     0.00038     0.00015     0.00027
  n-local   -35.56431   -37.90672   -38.12428    -1.61034    -0.32117     0.24424
  augment   350.19749   350.19780   350.19788    -0.00027    -0.00011    -0.00019
  Kinetic   226.04963   222.62678   222.32127     0.32802    -0.46818    -3.19490
  Fock        0.00000     0.00000     0.00000     0.00000     0.00000     0.00000
  -------------------------------------------------------------------------------------
  Total      -0.02021    -0.02021    -0.02021     0.00000     0.00000     0.00000
  in kB      -0.81574    -0.81574    -0.81574     0.00000     0.00000     0.00000
  external pressure =       -0.82 kB  Pullay stress =        0.00 kB


 VOLUME and BASIS-vectors are now :
 -----------------------------------------------------------------------------
  energy-cutoff  :      500.00
  volume of cell :       39.69
      direct lattice vectors                 reciprocal lattice vectors
     3.828724565  0.000000000  0.000000000     0.261183583 -0.150794412 -0.106627751
     1.914362283  3.315772738  0.000000000    -0.000000000  0.301588824 -0.106627751
     1.914362283  1.105257579  3.126140517     0.000000000  0.000000000  0.319883254

  length of vectors
     3.828724565  3.828724565  3.828724565     0.319883254  0.319883254  0.319883254


 FORCES acting on ions
    electron-ion (+dipol)            ewald-force                    non-local-force                 convergence-correction
 -----------------------------------------------------------------------------------------------
   0.110E-05 0.635E-06 0.926E-07   -.180E-12 0.116E-12 0.649E-13   -.781E-16 -.694E-17 -.104E-16   0.115E-05 0.662E-06 0.468E-06
   -.110E-05 -.635E-06 -.927E-07   0.180E-12 -.115E-12 -.645E-13   0.347E-16 0.382E-16 0.243E-16   -.115E-05 -.662E-06 -.468E-06
   0.337E-13 0.236E-13 0.140E-13   -.993E-15 -.122E-14 -.182E-14   0.000E+00 -.165E-23 0.000E+00   0.961E-14 0.333E-13 0.240E-13
 -----------------------------------------------------------------------------------------------
   -.451E-12 0.111E-11 -.231E-11   -.132E-14 0.268E-15 -.138E-14   -.434E-16 0.312E-16 0.139E-16   -.315E-14 0.334E-13 0.770E-13
 
 
 POSITION                                       TOTAL-FORCE (eV/Angst)
 -----------------------------------------------------------------------------------
      1.91436      1.10526      0.78154        -0.000000      0.000000     -0.000000
      5.74309      3.31577      2.34461         0.000000     -0.000000      0.000000
      0.00000      0.00000      0.00000         0.000000      0.000000      0.000000
 -----------------------------------------------------------------------------------
    total drift:                               -0.000000      0.000000     -0.000000


--------------------------------------------------------------------------------------------------------



  FREE ENERGIE OF THE ION-ELECTRON SYSTEM (eV)
  ---------------------------------------------------
  free  energy   TOTEN  =       -20.63032454 eV

  energy  without entropy=      -20.63032454  energy(sigma->0) =      -20.63032454
 


--------------------------------------------------------------------------------------------------------


    POTLOK:  cpu time    0.0260: real time    0.0261


--------------------------------------------------------------------------------------------------------


     LOOP+:  cpu time   87.0450: real time   87.7651
    4ORBIT:  cpu time    0.0000: real time    0.0000
 


 total charge     
 
# of ion       s       p       d       tot
------------------------------------------
    1        0.490   0.401   7.253   8.144
    2        0.490   0.401   7.253   8.144
    3        0.547   0.537   6.291   7.375
--------------------------------------------------
tot          1.528   1.338  20.797  23.663
 


 magnetization (x)
 
# of ion       s       p       d       tot
------------------------------------------
    1       -0.015  -0.029   1.750   1.707
    2       -0.015  -0.029   1.750   1.707
    3       -0.024  -0.045   2.485   2.416
--------------------------------------------------
tot         -0.053  -0.103   5.985   5.829
 
 BZINTS: Fermi energy:  6.530736; 26.000000 electrons
         Band energy: 113.052361;  BLOECHL correction: -0.010321

 total amount of memory used by VASP MPI-rank0   113534. kBytes
=======================================================================

   base      :      30000. kBytes
   nonl-proj :      43396. kBytes
   fftplans  :        933. kBytes
   grid      :       3644. kBytes
   one-center:         93. kBytes
   wavefun   :      35468. kBytes
 
  
  
 General timing and accounting informations for this job:
 ========================================================
  
                  Total CPU time used (sec):       88.646
                            User time (sec):       88.204
                          System time (sec):        0.442
                         Elapsed time (sec):       89.920
  
                   Maximum memory used (kb):      197216.
                   Average memory used (kb):           0.
  
                          Minor page faults:        17164
                          Major page faults:            0
                 Voluntary context switches:          367
