Starting Job at 10h55m18s_22_03_21
Starting Job from host liverpool

                                 *****************
                                 * O   R   C   A *
                                 *****************

           --- An Ab Initio, DFT and Semiempirical electronic structure package ---

                  #######################################################
                  #                        -***-                        #
                  #          Department of theory and spectroscopy      #
                  #               Directorship: Frank Neese             #
                  #        Max Planck Institute fuer Kohlenforschung    #
                  #                Kaiser Wilhelm Platz 1               #
                  #                 D-45470 Muelheim/Ruhr               #
                  #                      Germany                        #
                  #                                                     #
                  #                  All rights reserved                #
                  #                        -***-                        #
                  #######################################################


                         Program Version 4.2.1 -  RELEASE  -


 With contributions from (in alphabetic order):
   Daniel Aravena         : Magnetic Suceptibility
   Michael Atanasov       : Ab Initio Ligand Field Theory (pilot matlab implementation)
   Alexander A. Auer      : GIAO ZORA, VPT2
   Ute Becker             : Parallelization
   Giovanni Bistoni       : ED, misc. LED, open-shell LED, HFLD
   Martin Brehm           : Molecular dynamics
   Dmytro Bykov           : SCF Hessian
   Vijay G. Chilkuri      : MRCI spin determinant printing, contributions to CSF-ICE
   Dipayan Datta          : RHF DLPNO-CCSD density
   Achintya Kumar Dutta   : EOM-CC, STEOM-CC
   Dmitry Ganyushin       : Spin-Orbit,Spin-Spin,Magnetic field MRCI
   Miquel Garcia          : C-PCM Hessian, Gaussian charge scheme
   Yang Guo               : DLPNO-NEVPT2, CIM, IAO-localization
   Andreas Hansen         : Spin unrestricted coupled pair/coupled cluster methods
   Benjamin Helmich-Paris : CASSCF linear response (MC-RPA)
   Lee Huntington         : MR-EOM, pCC
   Robert Izsak           : Overlap fitted RIJCOSX, COSX-SCS-MP3, EOM
   Christian Kollmar      : KDIIS, OOCD, Brueckner-CCSD(T), CCSD density
   Simone Kossmann        : Meta GGA functionals, TD-DFT gradient, OOMP2, MP2 Hessian
   Martin Krupicka        : AUTO-CI
   Lucas Lang             : DCDCAS
   Dagmar Lenk            : GEPOL surface, SMD
   Dimitrios Liakos       : Extrapolation schemes; Compound Job, initial MDCI parallelization
   Dimitrios Manganas     : Further ROCIS development; embedding schemes
   Dimitrios Pantazis     : SARC Basis sets
   Taras Petrenko         : DFT Hessian,TD-DFT gradient, ASA, ECA, R-Raman, ABS, FL, XAS/XES, NRVS
   Peter Pinski           : DLPNO-MP2, DLPNO-MP2 Gradient
   Christoph Reimann      : Effective Core Potentials
   Marius Retegan         : Local ZFS, SOC
   Christoph Riplinger    : Optimizer, TS searches, QM/MM, DLPNO-CCSD(T), (RO)-DLPNO pert. Triples
   Tobias Risthaus        : Range-separated hybrids, TD-DFT gradient, RPA, STAB
   Michael Roemelt        : Original ROCIS implementation
   Masaaki Saitow         : Open-shell DLPNO-CCSD energy and density
   Barbara Sandhoefer     : DKH picture change effects
   Avijit Sen             : IP-ROCIS
   Kantharuban Sivalingam : CASSCF convergence, NEVPT2, FIC-MRCI
   Bernardo de Souza      : ESD, SOC TD-DFT
   Georgi Stoychev        : AutoAux, RI-MP2 NMR
   Willem Van den Heuvel  : Paramagnetic NMR
   Boris Wezisla          : Elementary symmetry handling
   Frank Wennmohs         : Technical directorship


 We gratefully acknowledge several colleagues who have allowed us to
 interface, adapt or use parts of their codes:
   Stefan Grimme, W. Hujo, H. Kruse,             : VdW corrections, initial TS optimization,
                  C. Bannwarth                     DFT functionals, gCP, sTDA/sTD-DF
   Ed Valeev, F. Pavosevic, A. Kumar             : LibInt (2-el integral package), F12 methods
   Garnet Chan, S. Sharma, J. Yang, R. Olivares  : DMRG
   Ulf Ekstrom                                   : XCFun DFT Library
   Mihaly Kallay                                 : mrcc  (arbitrary order and MRCC methods)
   Andreas Klamt, Michael Diedenhofen            : otool_cosmo (COSMO solvation model)
   Jiri Pittner, Ondrej Demel                    : Mk-CCSD
   Frank Weinhold                                : gennbo (NPA and NBO analysis)
   Christopher J. Cramer and Donald G. Truhlar   : smd solvation model
   Lars Goerigk                                  : TD-DFT with DH, B97 family of functionals
   V. Asgeirsson, H. Jonsson                     : NEB implementation
   FAccTs GmbH                                   : IRC, NEB, NEB-TS, Multilevel, MM, QM/MM, CI optimization
   S Lehtola, MJT Oliveira, MAL Marques          : LibXC Library


 Your calculation uses the libint2 library for the computation of 2-el integrals
 For citations please refer to: http://libint.valeyev.net

 Your ORCA version has been built with support for libXC version: 4.2.3
 For citations please refer to: https://tddft.org/programs/libxc/

 This ORCA versions uses:
   CBLAS   interface :  Fast vector & matrix operations
   LAPACKE interface :  Fast linear algebra routines
   SCALAPACK package :  Parallel linear algebra routines


----- Orbital basis set information -----
Your calculation utilizes the basis: cc-pVQZ 
       H, B-Ne : Obtained from the ccRepo (grant-hill.group.shef.ac.uk/ccrepo) Feb. 2017
                 T. H. Dunning, Jr., J. Chem. Phys. 90, 1007 (1989)
            He : Obtained from the ccRepo (grant-hill.group.shef.ac.uk/ccrepo) Feb. 2017
                 D. E. Woon, T. H. Dunning, Jr., J. Chem. Phys. 100, 2975 (1994)
  Li-Be, Na-Mg : Obtained from the ccRepo (grant-hill.group.shef.ac.uk/ccrepo) Feb. 2017
                 B. P. Prascher, D. E. Woon, K. A. Peterson, T. H. Dunning, Jr., A. K. Wilson, Theor. Chem. Acc. 128, 69 (2011)
         Al-Ar : Obtained from the ccRepo (grant-hill.group.shef.ac.uk/ccrepo) Feb. 2017
                 D. E. Woon, T. H. Dunning, Jr., J. Chem. Phys. 98, 1358 (1993)
            Ca : Obtained from the Peterson Research Group Website (tyr0.chem.wsu.edu/~kipeters) Feb. 2017
                 J. Koput, K. A. Peterson, J. Phys. Chem. 106, 9595 (2002)
         Sc-Zn : Obtained from the ccRepo (grant-hill.group.shef.ac.uk/ccrepo) Feb. 2017
                 N. B. Balabanov, K. A. Peterson, J. Chem. Phys. 123, 064107 (2005)
                 N. B. Balabanov, K. A. Peterson, J. Chem. Phys. 125, 074110 (2006)
         Ga-Kr : Obtained from the ccRepo (grant-hill.group.shef.ac.uk/ccrepo) Feb. 2017
                 A. K. Wilson, D. E. Woon, K. A. Peterson, T. H. Dunning, Jr., J. Chem. Phys. 110, 7667 (1999)

================================================================================
                                        WARNINGS
                       Please study these warnings very carefully!
================================================================================


WARNING: No MP2 level density has been requested!
         To caclulate MP2 level properties use
         %mp2 Density relaxed end
         or
         %mp2 Density unrelaxed end

WARNING: Post HF methods need fully converged wavefunctions
  ===> : Setting SCFConvForced true
         You can overwrite this default with %scf ConvForced false 


INFO   : the flag for use of LIBINT has been found!

================================================================================
                                       INPUT FILE
================================================================================
NAME = 120+60.inp
|  1> ! MP2 cc-pVQZ
|  2> 
|  3> %maxcore 3000
|  4> 
|  5> %pal
|  6> nprocs 4
|  7> end
|  8> 
|  9> * xyz 0 1
| 10>   C   0.17034684693397      2.78869354725633      4.79512787859113
| 11>   H   -0.70724046093053      2.32536718852186      5.24788040243514
| 12>   H   0.90467703148527      2.98094525950397      5.58000635297107
| 13>   H   -0.10794568309466      3.74081604505467      4.34919643893041
| 14>   C   0.82073671589299      1.92672406887941      3.72947244405147
| 15>   O   1.45787383125015      2.41658008026873      2.82409878034180
| 16>   N   0.59510388494010      0.58646746555198      3.89829622802645
| 17>   H   0.12948553671606      0.35539506709308      4.75924509877540
| 18>   C   1.31067499589025     -0.54598056992759      3.29771934464762
| 19>   H   0.55989118691562     -1.17116294934578      2.79578541639602
| 20>   C   2.38597868595048     -0.19595096701843      2.28807129643671
| 21>   H   2.82878860881019     -1.12729531268602      1.93371162141207
| 22>   H   1.96835578419871      0.35228968027717      1.44819016729946
| 23>   H   3.17295411672672      0.40317528800606      2.73817799833939
| 24>   C   1.90393036903049     -1.38524489843127      4.44511278625885
| 25>   O   3.09153005037265     -1.53549512904464      4.61748589348465
| 26>   N   0.97334568619714     -1.88480331765187      5.31497264090030
| 27>   H   0.04192813317585     -2.02101117567787      4.96087847014555
| 28>   C   1.39830560467546     -2.74390274529241      6.40336858802673
| 29>   H   1.81866118080345     -3.68528527606003      6.04109767295101
| 30>   H   2.16418067905091     -2.23483678816621      6.98571974779659
| 31>   H   0.54421478500865     -2.95233524111116      7.04591628178185
| 32> *
| 33> 
| 34>                          ****END OF INPUT****
================================================================================

                       ****************************
                       * Single Point Calculation *
                       ****************************

---------------------------------
CARTESIAN COORDINATES (ANGSTROEM)
---------------------------------
  C      0.170347    2.788694    4.795128
  H     -0.707240    2.325367    5.247880
  H      0.904677    2.980945    5.580006
  H     -0.107946    3.740816    4.349196
  C      0.820737    1.926724    3.729472
  O      1.457874    2.416580    2.824099
  N      0.595104    0.586467    3.898296
  H      0.129486    0.355395    4.759245
  C      1.310675   -0.545981    3.297719
  H      0.559891   -1.171163    2.795785
  C      2.385979   -0.195951    2.288071
  H      2.828789   -1.127295    1.933712
  H      1.968356    0.352290    1.448190
  H      3.172954    0.403175    2.738178
  C      1.903930   -1.385245    4.445113
  O      3.091530   -1.535495    4.617486
  N      0.973346   -1.884803    5.314973
  H      0.041928   -2.021011    4.960878
  C      1.398306   -2.743903    6.403369
  H      1.818661   -3.685285    6.041098
  H      2.164181   -2.234837    6.985720
  H      0.544215   -2.952335    7.045916

----------------------------
CARTESIAN COORDINATES (A.U.)
----------------------------
  NO LB      ZA    FRAG     MASS         X           Y           Z
   0 C     6.0000    0    12.011    0.321909    5.269867    9.061478
   1 H     1.0000    0     1.008   -1.336491    4.394307    9.917057
   2 H     1.0000    0     1.008    1.709592    5.633170   10.544684
   3 H     1.0000    0     1.008   -0.203988    7.069118    8.218790
   4 C     6.0000    0    12.011    1.550968    3.640981    7.047682
   5 O     8.0000    0    15.999    2.754982    4.566675    5.336773
   6 N     7.0000    0    14.007    1.124583    1.108263    7.366712
   7 H     1.0000    0     1.008    0.244692    0.671599    8.993670
   8 C     6.0000    0    12.011    2.476817   -1.031754    6.231786
   9 H     1.0000    0     1.008    1.058041   -2.213177    5.283269
  10 C     6.0000    0    12.011    4.508846   -0.370294    4.323828
  11 H     1.0000    0     1.008    5.345636   -2.130279    3.654185
  12 H     1.0000    0     1.008    3.719653    0.665731    2.736683
  13 H     1.0000    0     1.008    5.996014    0.761891    5.174407
  14 C     6.0000    0    12.011    3.597907   -2.617733    8.400046
  15 O     8.0000    0    15.999    5.842145   -2.901665    8.725784
  16 N     7.0000    0    14.007    1.839357   -3.561762   10.043843
  17 H     1.0000    0     1.008    0.079233   -3.819158    9.374702
  18 C     6.0000    0    12.011    2.642415   -5.185225   12.100613
  19 H     1.0000    0     1.008    3.436772   -6.964180   11.416020
  20 H     1.0000    0     1.008    4.089709   -4.223229   13.201097
  21 H     1.0000    0     1.008    1.028417   -5.579105   13.314852

--------------------------------
INTERNAL COORDINATES (ANGSTROEM)
--------------------------------
 C      0   0   0     0.000000000000     0.00000000     0.00000000
 H      1   0   0     1.090786709430     0.00000000     0.00000000
 H      1   2   0     1.091895489665   108.51220648     0.00000000
 H      1   2   3     1.087583942490   109.64411812   241.98934026
 C      1   2   3     1.517109049628   113.27412086   120.49889775
 O      5   1   2     1.210621363845   121.40195238   153.19607749
 N      5   1   2     1.369561757352   113.50277645   333.96954416
 H      7   5   1     1.005697696913   113.99448499   352.93459766
 C      7   5   1     1.468050803187   128.62039439   196.85760485
 H      9   7   5     1.098392918624   107.02782757   234.81111624
 C      9   7   5     1.515977549315   116.10970374   355.70064577
 H     11   9   7     1.090437388057   107.89457157   179.78707254
 H     11   9   7     1.086451566567   111.02118025   299.93208616
 H     11   9   7     1.086682401258   111.41521205    61.22244078
 C      9   7   5     1.540398734325   107.65496046   119.99999552
 O     15   9   7     1.209413338366   123.50672872   243.96519234
 N     15   9   7     1.368284558436   114.23762756    59.99999582
 H     17  15   9     1.005720597595   117.09595859    25.59246773
 C     17  15   9     1.450258079311   119.60995558   177.12902650
 H     19  17  15     1.092767173521   111.97687253   295.15932027
 H     19  17  15     1.088506155949   109.30775492    54.83780486
 H     19  17  15     1.088936532725   109.05012987   173.92048847

---------------------------
INTERNAL COORDINATES (A.U.)
---------------------------
 C      0   0   0     0.000000000000     0.00000000     0.00000000
 H      1   0   0     2.061288151345     0.00000000     0.00000000
 H      1   2   0     2.063383442330   108.51220648     0.00000000
 H      1   2   3     2.055235798956   109.64411812   241.98934026
 C      1   2   3     2.866920619090   113.27412086   120.49889775
 O      5   1   2     2.287742829542   121.40195238   153.19607749
 N      5   1   2     2.588096644888   113.50277645   333.96954416
 H      7   5   1     1.900493220681   113.99448499   352.93459766
 C      7   5   1     2.774213968706   128.62039439   196.85760485
 H      9   7   5     2.075661803638   107.02782757   234.81111624
 C      9   7   5     2.864782393378   116.10970374   355.70064577
 H     11   9   7     2.060628029617   107.89457157   179.78707254
 H     11   9   7     2.053095918581   111.02118025   299.93208616
 H     11   9   7     2.053532132929   111.41521205    61.22244078
 C      9   7   5     2.910931744914   107.65496046   119.99999552
 O     15   9   7     2.285459992224   123.50672872   243.96519234
 N     15   9   7     2.585683088718   114.23762756    59.99999582
 H     17  15   9     1.900536496698   117.09595859    25.59246773
 C     17  15   9     2.740590593404   119.60995558   177.12902650
 H     19  17  15     2.065030686095   111.97687253   295.15932027
 H     19  17  15     2.056978529832   109.30775492    54.83780486
 H     19  17  15     2.057791824071   109.05012987   173.92048847

---------------------
BASIS SET INFORMATION
---------------------
There are 4 groups of distinct atoms

 Group   1 Type C   : 21s6p3d2f1g contracted to 5s4p3d2f1g pattern {99111/3111/111/11/1}
 Group   2 Type H   : 6s3p2d1f contracted to 4s3p2d1f pattern {3111/111/11/1}
 Group   3 Type O   : 21s6p3d2f1g contracted to 5s4p3d2f1g pattern {99111/3111/111/11/1}
 Group   4 Type N   : 21s6p3d2f1g contracted to 5s4p3d2f1g pattern {99111/3111/111/11/1}

Atom   0C    basis set group =>   1
Atom   1H    basis set group =>   2
Atom   2H    basis set group =>   2
Atom   3H    basis set group =>   2
Atom   4C    basis set group =>   1
Atom   5O    basis set group =>   3
Atom   6N    basis set group =>   4
Atom   7H    basis set group =>   2
Atom   8C    basis set group =>   1
Atom   9H    basis set group =>   2
Atom  10C    basis set group =>   1
Atom  11H    basis set group =>   2
Atom  12H    basis set group =>   2
Atom  13H    basis set group =>   2
Atom  14C    basis set group =>   1
Atom  15O    basis set group =>   3
Atom  16N    basis set group =>   4
Atom  17H    basis set group =>   2
Atom  18C    basis set group =>   1
Atom  19H    basis set group =>   2
Atom  20H    basis set group =>   2
Atom  21H    basis set group =>   2


           ************************************************************
           *        Program running with 4 parallel MPI-processes     *
           *              working on a common directory               *
           ************************************************************
------------------------------------------------------------------------------
                           ORCA GTO INTEGRAL CALCULATION
------------------------------------------------------------------------------

                         BASIS SET STATISTICS AND STARTUP INFO

 # of primitive gaussian shells          ...  474
 # of primitive gaussian functions       ... 1154
 # of contracted shells                  ...  270
 # of contracted basis functions         ...  910
 Highest angular momentum                ...    4
 Maximum contraction depth               ...    9
 Integral package used                   ... LIBINT
 Integral threshhold            Thresh   ...  1.000e-10
 Primitive cut-off              TCut     ...  1.000e-11


------------------------------ INTEGRAL EVALUATION ----------------------------


 * One electron integrals 
 Pre-screening matrix                    ... done
 Shell pair data                         ... done (   0.022 sec)



           ************************************************************
           *        Program running with 4 parallel MPI-processes     *
           *              working on a common directory               *
           ************************************************************
-------------------------------------------------------------------------------
                                 ORCA SCF
-------------------------------------------------------------------------------

------------
SCF SETTINGS
------------
Hamiltonian:
 Ab initio Hamiltonian  Method          .... Hartree-Fock(GTOs)


General Settings:
 Integral files         IntName         .... 120+60
 Hartree-Fock type      HFTyp           .... RHF
 Total Charge           Charge          ....    0
 Multiplicity           Mult            ....    1
 Number of Electrons    NEL             ....   78
 Basis Dimension        Dim             ....  910
 Nuclear Repulsion      ENuc            ....    555.9217285602 Eh

Convergence Acceleration:
 DIIS                   CNVDIIS         .... on
   Start iteration      DIISMaxIt       ....    12
   Startup error        DIISStart       ....  0.200000
   # of expansion vecs  DIISMaxEq       ....     5
   Bias factor          DIISBfac        ....   1.050
   Max. coefficient     DIISMaxC        ....  10.000
 Newton-Raphson         CNVNR           .... off
 SOSCF                  CNVSOSCF        .... on
   Start iteration      SOSCFMaxIt      ....   150
   Startup grad/error   SOSCFStart      ....  0.003300
 Level Shifting         CNVShift        .... on
   Level shift para.    LevelShift      ....    0.2500
   Turn off err/grad.   ShiftErr        ....    0.0010
 Zerner damping         CNVZerner       .... off
 Static damping         CNVDamp         .... on
   Fraction old density DampFac         ....    0.7000
   Max. Damping (<1)    DampMax         ....    0.9800
   Min. Damping (>=0)   DampMin         ....    0.0000
   Turn off err/grad.   DampErr         ....    0.1000
 Fernandez-Rico         CNVRico         .... off

SCF Procedure:
 Maximum # iterations   MaxIter         ....   125
 SCF integral mode      SCFMode         .... Direct
   Integral package                     .... LIBINT
 Reset frequency        DirectResetFreq ....    20
 Integral Threshold     Thresh          ....  1.000e-10 Eh
 Primitive CutOff       TCut            ....  1.000e-11 Eh

Convergence Tolerance:
 Convergence Check Mode ConvCheckMode   .... Total+1el-Energy
 Convergence forced     ConvForced      .... 1
 Energy Change          TolE            ....  1.000e-06 Eh
 1-El. energy change                    ....  1.000e-03 Eh
 Orbital Gradient       TolG            ....  5.000e-05
 Orbital Rotation angle TolX            ....  5.000e-05
 DIIS Error             TolErr          ....  1.000e-06


Diagonalization of the overlap matrix:
Smallest eigenvalue                        ... 4.253e-05
Time for diagonalization                   ...    0.497 sec
Threshold for overlap eigenvalues          ... 1.000e-08
Number of eigenvalues below threshold      ... 0
Time for construction of square roots      ...    3.192 sec
Total time needed                          ...    3.691 sec

-------------------
DFT GRID GENERATION
-------------------

General Integration Accuracy     IntAcc      ...  4.340
Radial Grid Type                 RadialGrid  ... Gauss-Chebyshev
Angular Grid (max. acc.)         AngularGrid ... Lebedev-110
Angular grid pruning method      GridPruning ... 3 (G Style)
Weight generation scheme         WeightScheme... Becke
Basis function cutoff            BFCut       ...    1.0000e-10
Integration weight cutoff        WCut        ...    1.0000e-14
Grids for H and He will be reduced by one unit

# of grid points (after initial pruning)     ...  26300 (   0.0 sec)
# of grid points (after weights+screening)   ...  24164 (   0.2 sec)
nearest neighbour list constructed           ...    0.0 sec
Grid point re-assignment to atoms done       ...    0.0 sec
Grid point division into batches done        ...    0.0 sec
Reduced shell lists constructed in    0.3 sec

Total number of grid points                  ...    24164
Total number of batches                      ...      388
Average number of points per batch           ...       62
Average number of grid points per atom       ...     1098
Average number of shells per batch           ...   119.52 (44.27%)
Average number of basis functions per batch  ...   372.28 (40.91%)
Average number of large shells per batch     ...    82.78 (69.26%)
Average number of large basis fcns per batch ...   257.86 (69.27%)
Maximum spatial batch extension              ...  20.71, 19.19, 19.24 au
Average spatial batch extension              ...   1.02,  0.89,  1.00 au

Time for grid setup =    0.629 sec

------------------------------
INITIAL GUESS: MODEL POTENTIAL
------------------------------
Loading Hartree-Fock densities                     ... done
Calculating cut-offs                               ... done
Setting up the integral package                    ... done
Initializing the effective Hamiltonian             ... done
Starting the Coulomb interaction                   ... done (   0.7 sec)
Reading the grid                                   ... done
Mapping shells                                     ... done
Starting the XC term evaluation                    ... done (   0.9 sec)
Transforming the Hamiltonian                       ... done (   0.7 sec)
Diagonalizing the Hamiltonian                      ... done (   1.0 sec)
Back transforming the eigenvectors                 ... done (   2.4 sec)
Now organizing SCF variables                       ... done
                      ------------------
                      INITIAL GUESS DONE (   6.6 sec)
                      ------------------
--------------
SCF ITERATIONS
--------------
ITER       Energy         Delta-E        Max-DP      RMS-DP      [F,P]     Damp
               ***  Starting incremental Fock matrix formation  ***
  0   -492.5164176471   0.000000000000 0.05060337  0.00032770  0.3669943 0.7000
  1   -492.7069463456  -0.190528698462 0.03797741  0.00026696  0.2192464 0.7000
                               ***Turning on DIIS***
  2   -492.8201483576  -0.113202012064 0.02788548  0.00017441  0.1251938 0.7000
  3   -494.0013375293  -1.181189171655 0.07157422  0.00036129  0.0734035 0.0000
  4   -493.0063515176   0.994986011646 0.01557680  0.00007776  0.0079452 0.0000
  5   -493.0629775962  -0.056626078549 0.00665596  0.00004127  0.0041072 0.0000
                      *** Initiating the SOSCF procedure ***
                           *** Shutting down DIIS ***
                      *** Re-Reading the Fockian *** 
                      *** Removing any level shift *** 
ITER      Energy       Delta-E        Grad      Rot      Max-DP    RMS-DP
  6   -493.04914695   0.0138306447  0.001534  0.001534  0.002985  0.000021
               *** Restarting incremental Fock matrix formation ***
  7   -493.05758899  -0.0084420374  0.000535  0.000957  0.001710  0.000014
  8   -493.05761571  -0.0000267251  0.000376  0.001397  0.001354  0.000013
  9   -493.05762582  -0.0000101082  0.000124  0.000205  0.000481  0.000003
 10   -493.05762694  -0.0000011224  0.000025  0.000035  0.000121  0.000001
                 **** Energy Check signals convergence ****
              ***Rediagonalizing the Fockian in SOSCF/NRSCF***

               *****************************************************
               *                     SUCCESS                       *
               *           SCF CONVERGED AFTER  11 CYCLES          *
               *****************************************************


----------------
TOTAL SCF ENERGY
----------------

Total Energy       :         -493.05762701 Eh          -13416.78013 eV

Components:
Nuclear Repulsion  :          555.92172856 Eh           15127.39930 eV
Electronic Energy  :        -1048.97935557 Eh          -28544.17942 eV
One Electron Energy:        -1775.39310101 Eh          -48310.90236 eV
Two Electron Energy:          726.41374544 Eh           19766.72293 eV

Virial components:
Potential Energy   :         -985.65798868 Eh          -26821.11743 eV
Kinetic Energy     :          492.60036167 Eh           13404.33730 eV
Virial Ratio       :            2.00092827


---------------
SCF CONVERGENCE
---------------

  Last Energy change         ...   -6.8543e-08  Tolerance :   1.0000e-06
  Last MAX-Density change    ...    2.5587e-05  Tolerance :   1.0000e-05
  Last RMS-Density change    ...    3.0057e-07  Tolerance :   1.0000e-06
  Last Orbital Gradient      ...    1.2474e-05  Tolerance :   5.0000e-05
  Last Orbital Rotation      ...    2.7989e-05  Tolerance :   5.0000e-05

             **** THE GBW FILE WAS UPDATED (120+60.gbw) ****
             **** DENSITY FILE WAS UPDATED (120+60.scfp) ****
             **** ENERGY FILE WAS UPDATED (120+60.en.tmp) ****
             **** THE GBW FILE WAS UPDATED (120+60.gbw) ****
             **** DENSITY FILE WAS UPDATED (120+60.scfp) ****
----------------
ORBITAL ENERGIES
----------------

  NO   OCC          E(Eh)            E(eV) 
   0   2.0000     -20.530479      -558.6627 
   1   2.0000     -20.513193      -558.1924 
   2   2.0000     -15.594169      -424.3389 
   3   2.0000     -15.589069      -424.2001 
   4   2.0000     -11.353075      -308.9329 
   5   2.0000     -11.351352      -308.8860 
   6   2.0000     -11.290769      -307.2374 
   7   2.0000     -11.267419      -306.6021 
   8   2.0000     -11.236583      -305.7630 
   9   2.0000     -11.207760      -304.9787 
  10   2.0000      -1.400149       -38.1000 
  11   2.0000      -1.383619       -37.6502 
  12   2.0000      -1.252625       -34.0857 
  13   2.0000      -1.231182       -33.5022 
  14   2.0000      -1.056992       -28.7622 
  15   2.0000      -0.989328       -26.9210 
  16   2.0000      -0.966418       -26.2976 
  17   2.0000      -0.878562       -23.9069 
  18   2.0000      -0.800554       -21.7842 
  19   2.0000      -0.770733       -20.9727 
  20   2.0000      -0.732987       -19.9456 
  21   2.0000      -0.691052       -18.8045 
  22   2.0000      -0.666882       -18.1468 
  23   2.0000      -0.654006       -17.7964 
  24   2.0000      -0.633356       -17.2345 
  25   2.0000      -0.620586       -16.8870 
  26   2.0000      -0.603721       -16.4281 
  27   2.0000      -0.591375       -16.0921 
  28   2.0000      -0.567225       -15.4350 
  29   2.0000      -0.561434       -15.2774 
  30   2.0000      -0.536364       -14.5952 
  31   2.0000      -0.532082       -14.4787 
  32   2.0000      -0.528540       -14.3823 
  33   2.0000      -0.518280       -14.1031 
  34   2.0000      -0.508789       -13.8449 
  35   2.0000      -0.452748       -12.3199 
  36   2.0000      -0.420639       -11.4462 
  37   2.0000      -0.407859       -11.0984 
  38   2.0000      -0.390462       -10.6250 
  39   0.0000       0.084481         2.2988 
  40   0.0000       0.116637         3.1739 
  41   0.0000       0.123215         3.3528 
  42   0.0000       0.134850         3.6695 
  43   0.0000       0.153346         4.1727 
  44   0.0000       0.166888         4.5413 
  45   0.0000       0.169396         4.6095 
  46   0.0000       0.175011         4.7623 
  47   0.0000       0.184729         5.0267 
  48   0.0000       0.191017         5.1978 
  49   0.0000       0.197511         5.3746 
  50   0.0000       0.207385         5.6432 
  51   0.0000       0.214292         5.8312 
  52   0.0000       0.223054         6.0696 
  53   0.0000       0.225127         6.1260 
  54   0.0000       0.240899         6.5552 
  55   0.0000       0.265208         7.2167 
  56   0.0000       0.276519         7.5245 
  57   0.0000       0.287164         7.8141 
  58   0.0000       0.293079         7.9751 
  59   0.0000       0.305538         8.3141 
  60   0.0000       0.319568         8.6959 
  61   0.0000       0.322860         8.7855 
  62   0.0000       0.330214         8.9856 
  63   0.0000       0.347403         9.4533 
  64   0.0000       0.351515         9.5652 
  65   0.0000       0.380058        10.3419 
  66   0.0000       0.392133        10.6705 
  67   0.0000       0.398823        10.8525 
  68   0.0000       0.403919        10.9912 
  69   0.0000       0.417882        11.3711 
  70   0.0000       0.430656        11.7187 
  71   0.0000       0.434670        11.8280 
  72   0.0000       0.446410        12.1474 
  73   0.0000       0.453747        12.3471 
  74   0.0000       0.461263        12.5516 
  75   0.0000       0.467590        12.7238 
  76   0.0000       0.480780        13.0827 
  77   0.0000       0.490301        13.3418 
  78   0.0000       0.495208        13.4753 
  79   0.0000       0.499376        13.5887 
  80   0.0000       0.508381        13.8337 
  81   0.0000       0.511068        13.9069 
  82   0.0000       0.513707        13.9787 
  83   0.0000       0.524726        14.2785 
  84   0.0000       0.530193        14.4273 
  85   0.0000       0.535784        14.5794 
  86   0.0000       0.541015        14.7218 
  87   0.0000       0.551613        15.0102 
  88   0.0000       0.558536        15.1985 
  89   0.0000       0.568686        15.4747 
  90   0.0000       0.579806        15.7773 
  91   0.0000       0.585792        15.9402 
  92   0.0000       0.590894        16.0790 
  93   0.0000       0.603962        16.4346 
  94   0.0000       0.607619        16.5341 
  95   0.0000       0.624016        16.9803 
  96   0.0000       0.641625        17.4595 
  97   0.0000       0.646485        17.5918 
  98   0.0000       0.655928        17.8487 
  99   0.0000       0.662637        18.0313 
 100   0.0000       0.677079        18.4243 
 101   0.0000       0.680132        18.5073 
 102   0.0000       0.698017        18.9940 
 103   0.0000       0.709033        19.2938 
 104   0.0000       0.733092        19.9484 
 105   0.0000       0.740039        20.1375 
 106   0.0000       0.747068        20.3288 
 107   0.0000       0.753418        20.5015 
 108   0.0000       0.765043        20.8179 
 109   0.0000       0.770082        20.9550 
 110   0.0000       0.771536        20.9946 
 111   0.0000       0.787365        21.4253 
 112   0.0000       0.798053        21.7161 
 113   0.0000       0.820631        22.3305 
 114   0.0000       0.828702        22.5501 
 115   0.0000       0.833453        22.6794 
 116   0.0000       0.845417        23.0050 
 117   0.0000       0.846758        23.0414 
 118   0.0000       0.853292        23.2193 
 119   0.0000       0.857062        23.3219 
 120   0.0000       0.861879        23.4529 
 121   0.0000       0.874186        23.7878 
 122   0.0000       0.877820        23.8867 
 123   0.0000       0.885928        24.1073 
 124   0.0000       0.899761        24.4837 
 125   0.0000       0.908170        24.7126 
 126   0.0000       0.926659        25.2157 
 127   0.0000       0.933036        25.3892 
 128   0.0000       0.943296        25.6684 
 129   0.0000       0.946497        25.7555 
 130   0.0000       0.967215        26.3193 
 131   0.0000       0.972584        26.4653 
 132   0.0000       0.976154        26.5625 
 133   0.0000       0.989693        26.9309 
 134   0.0000       1.002650        27.2835 
 135   0.0000       1.008715        27.4485 
 136   0.0000       1.015689        27.6383 
 137   0.0000       1.025998        27.9188 
 138   0.0000       1.033084        28.1116 
 139   0.0000       1.048566        28.5329 
 140   0.0000       1.050024        28.5726 
 141   0.0000       1.070017        29.1166 
 142   0.0000       1.078372        29.3440 
 143   0.0000       1.082967        29.4690 
 144   0.0000       1.098588        29.8941 
 145   0.0000       1.101515        29.9737 
 146   0.0000       1.112717        30.2786 
 147   0.0000       1.118168        30.4269 
 148   0.0000       1.128166        30.6990 
 149   0.0000       1.133284        30.8382 
 150   0.0000       1.147429        31.2231 
 151   0.0000       1.150098        31.2958 
 152   0.0000       1.153695        31.3936 
 153   0.0000       1.155885        31.4532 
 154   0.0000       1.169323        31.8189 
 155   0.0000       1.174778        31.9673 
 156   0.0000       1.178859        32.0784 
 157   0.0000       1.181655        32.1545 
 158   0.0000       1.192892        32.4602 
 159   0.0000       1.199449        32.6387 
 160   0.0000       1.206791        32.8385 
 161   0.0000       1.215212        33.0676 
 162   0.0000       1.222023        33.2529 
 163   0.0000       1.226688        33.3799 
 164   0.0000       1.238597        33.7039 
 165   0.0000       1.248444        33.9719 
 166   0.0000       1.257503        34.2184 
 167   0.0000       1.263916        34.3929 
 168   0.0000       1.272554        34.6280 
 169   0.0000       1.277988        34.7758 
 170   0.0000       1.299058        35.3492 
 171   0.0000       1.321244        35.9529 
 172   0.0000       1.325287        36.0629 
 173   0.0000       1.340183        36.4682 
 174   0.0000       1.346405        36.6375 
 175   0.0000       1.374951        37.4143 
 176   0.0000       1.378913        37.5221 
 177   0.0000       1.396649        38.0047 
 178   0.0000       1.409109        38.3438 
 179   0.0000       1.414166        38.4814 
 180   0.0000       1.434793        39.0427 
 181   0.0000       1.442119        39.2420 
 182   0.0000       1.459225        39.7075 
 183   0.0000       1.502190        40.8767 
 184   0.0000       1.506734        41.0003 
 185   0.0000       1.527528        41.5662 
 186   0.0000       1.543489        42.0005 
 187   0.0000       1.572503        42.7900 
 188   0.0000       1.591360        43.3031 
 189   0.0000       1.596024        43.4300 
 190   0.0000       1.612549        43.8797 
 191   0.0000       1.631397        44.3926 
 192   0.0000       1.643540        44.7230 
 193   0.0000       1.660800        45.1927 
 194   0.0000       1.671498        45.4838 
 195   0.0000       1.682588        45.7855 
 196   0.0000       1.693261        46.0760 
 197   0.0000       1.707924        46.4750 
 198   0.0000       1.711023        46.5593 
 199   0.0000       1.730517        47.0898 
 200   0.0000       1.740706        47.3670 
 201   0.0000       1.755463        47.7686 
 202   0.0000       1.770477        48.1771 
 203   0.0000       1.774617        48.2898 
 204   0.0000       1.804594        49.1055 
 205   0.0000       1.821103        49.5547 
 206   0.0000       1.829705        49.7888 
 207   0.0000       1.844670        50.1960 
 208   0.0000       1.852552        50.4105 
 209   0.0000       1.874266        51.0014 
 210   0.0000       1.885760        51.3141 
 211   0.0000       1.895351        51.5751 
 212   0.0000       1.906141        51.8687 
 213   0.0000       1.919974        52.2452 
 214   0.0000       1.934214        52.6326 
 215   0.0000       1.957011        53.2530 
 216   0.0000       1.969489        53.5925 
 217   0.0000       1.970710        53.6257 
 218   0.0000       1.981180        53.9106 
 219   0.0000       1.994328        54.2684 
 220   0.0000       2.005581        54.5746 
 221   0.0000       2.017056        54.8869 
 222   0.0000       2.030980        55.2658 
 223   0.0000       2.043235        55.5993 
 224   0.0000       2.047943        55.7274 
 225   0.0000       2.064969        56.1907 
 226   0.0000       2.075399        56.4745 
 227   0.0000       2.077786        56.5394 
 228   0.0000       2.085606        56.7522 
 229   0.0000       2.088678        56.8358 
 230   0.0000       2.101621        57.1880 
 231   0.0000       2.106403        57.3181 
 232   0.0000       2.120936        57.7136 
 233   0.0000       2.133230        58.0481 
 234   0.0000       2.135696        58.1152 
 235   0.0000       2.146907        58.4203 
 236   0.0000       2.156581        58.6836 
 237   0.0000       2.160822        58.7990 
 238   0.0000       2.170888        59.0729 
 239   0.0000       2.176461        59.2245 
 240   0.0000       2.183561        59.4177 
 241   0.0000       2.189615        59.5824 
 242   0.0000       2.211014        60.1647 
 243   0.0000       2.212867        60.2152 
 244   0.0000       2.224284        60.5258 
 245   0.0000       2.233840        60.7859 
 246   0.0000       2.237680        60.8904 
 247   0.0000       2.251566        61.2682 
 248   0.0000       2.265833        61.6565 
 249   0.0000       2.283769        62.1445 
 250   0.0000       2.286830        62.2278 
 251   0.0000       2.295702        62.4692 
 252   0.0000       2.299626        62.5760 
 253   0.0000       2.312327        62.9216 
 254   0.0000       2.317382        63.0592 
 255   0.0000       2.332043        63.4581 
 256   0.0000       2.342078        63.7312 
 257   0.0000       2.346451        63.8502 
 258   0.0000       2.351727        63.9937 
 259   0.0000       2.362050        64.2747 
 260   0.0000       2.372302        64.5536 
 261   0.0000       2.379800        64.7577 
 262   0.0000       2.389647        65.0256 
 263   0.0000       2.403890        65.4132 
 264   0.0000       2.405070        65.4453 
 265   0.0000       2.412007        65.6341 
 266   0.0000       2.416910        65.7675 
 267   0.0000       2.428999        66.0964 
 268   0.0000       2.437815        66.3363 
 269   0.0000       2.449420        66.6521 
 270   0.0000       2.454098        66.7794 
 271   0.0000       2.460929        66.9653 
 272   0.0000       2.492239        67.8173 
 273   0.0000       2.501705        68.0749 
 274   0.0000       2.507246        68.2256 
 275   0.0000       2.510909        68.3253 
 276   0.0000       2.522854        68.6504 
 277   0.0000       2.531720        68.8916 
 278   0.0000       2.538677        69.0809 
 279   0.0000       2.556184        69.5573 
 280   0.0000       2.562521        69.7297 
 281   0.0000       2.570649        69.9509 
 282   0.0000       2.586178        70.3735 
 283   0.0000       2.591633        70.5219 
 284   0.0000       2.600930        70.7749 
 285   0.0000       2.603754        70.8517 
 286   0.0000       2.618824        71.2618 
 287   0.0000       2.621980        71.3477 
 288   0.0000       2.629880        71.5627 
 289   0.0000       2.646562        72.0166 
 290   0.0000       2.651154        72.1416 
 291   0.0000       2.659879        72.3790 
 292   0.0000       2.674851        72.7864 
 293   0.0000       2.681385        72.9642 
 294   0.0000       2.691958        73.2519 
 295   0.0000       2.709835        73.7384 
 296   0.0000       2.715761        73.8996 
 297   0.0000       2.718991        73.9875 
 298   0.0000       2.733515        74.3827 
 299   0.0000       2.744884        74.6921 
 300   0.0000       2.756340        75.0038 
 301   0.0000       2.766044        75.2679 
 302   0.0000       2.772256        75.4369 
 303   0.0000       2.776001        75.5388 
 304   0.0000       2.795214        76.0616 
 305   0.0000       2.803681        76.2920 
 306   0.0000       2.813487        76.5589 
 307   0.0000       2.823107        76.8206 
 308   0.0000       2.825900        76.8966 
 309   0.0000       2.839705        77.2723 
 310   0.0000       2.849889        77.5494 
 311   0.0000       2.854093        77.6638 
 312   0.0000       2.875344        78.2421 
 313   0.0000       2.883636        78.4677 
 314   0.0000       2.895081        78.7792 
 315   0.0000       2.900511        78.9269 
 316   0.0000       2.921651        79.5022 
 317   0.0000       2.934526        79.8525 
 318   0.0000       2.949807        80.2683 
 319   0.0000       2.957919        80.4891 
 320   0.0000       2.965769        80.7027 
 321   0.0000       2.979097        81.0654 
 322   0.0000       2.998536        81.5943 
 323   0.0000       3.005642        81.7877 
 324   0.0000       3.014539        82.0298 
 325   0.0000       3.028762        82.4168 
 326   0.0000       3.041942        82.7754 
 327   0.0000       3.050360        83.0045 
 328   0.0000       3.069843        83.5347 
 329   0.0000       3.077771        83.7504 
 330   0.0000       3.086722        83.9940 
 331   0.0000       3.105637        84.5087 
 332   0.0000       3.112807        84.7038 
 333   0.0000       3.118101        84.8478 
 334   0.0000       3.129877        85.1683 
 335   0.0000       3.136248        85.3416 
 336   0.0000       3.146625        85.6240 
 337   0.0000       3.149797        85.7103 
 338   0.0000       3.164358        86.1066 
 339   0.0000       3.180880        86.5562 
 340   0.0000       3.189119        86.7803 
 341   0.0000       3.190957        86.8304 
 342   0.0000       3.212115        87.4061 
 343   0.0000       3.227673        87.8294 
 344   0.0000       3.229378        87.8759 
 345   0.0000       3.243076        88.2486 
 346   0.0000       3.268465        88.9395 
 347   0.0000       3.276372        89.1546 
 348   0.0000       3.286537        89.4312 
 349   0.0000       3.297532        89.7304 
 350   0.0000       3.310890        90.0939 
 351   0.0000       3.314458        90.1910 
 352   0.0000       3.331204        90.6467 
 353   0.0000       3.341514        90.9272 
 354   0.0000       3.355616        91.3110 
 355   0.0000       3.367550        91.6357 
 356   0.0000       3.379352        91.9568 
 357   0.0000       3.381552        92.0167 
 358   0.0000       3.404994        92.6546 
 359   0.0000       3.409520        92.7778 
 360   0.0000       3.418385        93.0190 
 361   0.0000       3.430088        93.3374 
 362   0.0000       3.439908        93.6047 
 363   0.0000       3.452889        93.9579 
 364   0.0000       3.461330        94.1876 
 365   0.0000       3.466274        94.3221 
 366   0.0000       3.479777        94.6896 
 367   0.0000       3.491471        95.0077 
 368   0.0000       3.504723        95.3684 
 369   0.0000       3.520210        95.7898 
 370   0.0000       3.534292        96.1730 
 371   0.0000       3.538435        96.2857 
 372   0.0000       3.552121        96.6581 
 373   0.0000       3.563256        96.9611 
 374   0.0000       3.571899        97.1963 
 375   0.0000       3.596802        97.8739 
 376   0.0000       3.603128        98.0461 
 377   0.0000       3.605589        98.1131 
 378   0.0000       3.625064        98.6430 
 379   0.0000       3.652660        99.3939 
 380   0.0000       3.662662        99.6661 
 381   0.0000       3.670049        99.8671 
 382   0.0000       3.682874       100.2161 
 383   0.0000       3.694551       100.5339 
 384   0.0000       3.699562       100.6702 
 385   0.0000       3.712033       101.0096 
 386   0.0000       3.727317       101.4255 
 387   0.0000       3.740936       101.7961 
 388   0.0000       3.762641       102.3867 
 389   0.0000       3.772786       102.6627 
 390   0.0000       3.778405       102.8156 
 391   0.0000       3.804115       103.5152 
 392   0.0000       3.814557       103.7994 
 393   0.0000       3.831578       104.2625 
 394   0.0000       3.837027       104.4108 
 395   0.0000       3.858089       104.9839 
 396   0.0000       3.862914       105.1152 
 397   0.0000       3.876164       105.4758 
 398   0.0000       3.896937       106.0410 
 399   0.0000       3.901101       106.1544 
 400   0.0000       3.926704       106.8510 
 401   0.0000       3.935763       107.0975 
 402   0.0000       3.940317       107.2215 
 403   0.0000       3.951968       107.5385 
 404   0.0000       3.971659       108.0743 
 405   0.0000       3.977984       108.2464 
 406   0.0000       3.994010       108.6825 
 407   0.0000       4.004626       108.9714 
 408   0.0000       4.022993       109.4712 
 409   0.0000       4.030136       109.6656 
 410   0.0000       4.043323       110.0244 
 411   0.0000       4.066359       110.6512 
 412   0.0000       4.072907       110.8294 
 413   0.0000       4.095538       111.4452 
 414   0.0000       4.118249       112.0633 
 415   0.0000       4.135305       112.5274 
 416   0.0000       4.150800       112.9490 
 417   0.0000       4.159344       113.1815 
 418   0.0000       4.173999       113.5803 
 419   0.0000       4.178490       113.7025 
 420   0.0000       4.182574       113.8136 
 421   0.0000       4.192963       114.0963 
 422   0.0000       4.201304       114.3233 
 423   0.0000       4.210978       114.5865 
 424   0.0000       4.218695       114.7965 
 425   0.0000       4.248143       115.5978 
 426   0.0000       4.270725       116.2123 
 427   0.0000       4.279562       116.4528 
 428   0.0000       4.290200       116.7423 
 429   0.0000       4.293205       116.8240 
 430   0.0000       4.336467       118.0013 
 431   0.0000       4.342516       118.1659 
 432   0.0000       4.361413       118.6801 
 433   0.0000       4.380728       119.2057 
 434   0.0000       4.397041       119.6496 
 435   0.0000       4.415172       120.1429 
 436   0.0000       4.455980       121.2534 
 437   0.0000       4.463187       121.4495 
 438   0.0000       4.488782       122.1460 
 439   0.0000       4.496325       122.3512 
 440   0.0000       4.516000       122.8866 
 441   0.0000       4.535510       123.4175 
 442   0.0000       4.556105       123.9779 
 443   0.0000       4.569210       124.3345 
 444   0.0000       4.594361       125.0189 
 445   0.0000       4.599435       125.1570 
 446   0.0000       4.650661       126.5509 
 447   0.0000       4.677389       127.2782 
 448   0.0000       4.688063       127.5687 
 449   0.0000       4.708598       128.1275 
 450   0.0000       4.758715       129.4912 
 451   0.0000       4.770132       129.8019 
 452   0.0000       4.799087       130.5898 
 453   0.0000       4.820527       131.1732 
 454   0.0000       4.872010       132.5741 
 455   0.0000       4.891594       133.1070 
 456   0.0000       4.904938       133.4702 
 457   0.0000       4.918684       133.8442 
 458   0.0000       4.984726       135.6413 
 459   0.0000       5.013135       136.4143 
 460   0.0000       5.054049       137.5277 
 461   0.0000       5.081115       138.2642 
 462   0.0000       5.132785       139.6702 
 463   0.0000       5.191480       141.2674 
 464   0.0000       5.293232       144.0362 
 465   0.0000       5.329111       145.0125 
 466   0.0000       5.375492       146.2746 
 467   0.0000       5.412688       147.2867 
 468   0.0000       5.464371       148.6931 
 469   0.0000       5.476378       149.0198 
 470   0.0000       5.526426       150.3817 
 471   0.0000       5.541840       150.8011 
 472   0.0000       5.573626       151.6661 
 473   0.0000       5.621510       152.9691 
 474   0.0000       5.627832       153.1411 
 475   0.0000       5.685416       154.7080 
 476   0.0000       5.687033       154.7520 
 477   0.0000       5.703398       155.1973 
 478   0.0000       5.712755       155.4520 
 479   0.0000       5.724379       155.7683 
 480   0.0000       5.740831       156.2160 
 481   0.0000       5.752294       156.5279 
 482   0.0000       5.767636       156.9454 
 483   0.0000       5.784963       157.4168 
 484   0.0000       5.797631       157.7616 
 485   0.0000       5.816426       158.2730 
 486   0.0000       5.830743       158.6626 
 487   0.0000       5.836694       158.8245 
 488   0.0000       5.849752       159.1799 
 489   0.0000       5.861645       159.5035 
 490   0.0000       5.872870       159.8089 
 491   0.0000       5.887420       160.2048 
 492   0.0000       5.898915       160.5176 
 493   0.0000       5.927219       161.2878 
 494   0.0000       5.937511       161.5679 
 495   0.0000       5.966546       162.3580 
 496   0.0000       5.981758       162.7719 
 497   0.0000       5.988052       162.9432 
 498   0.0000       6.002165       163.3272 
 499   0.0000       6.028350       164.0397 
 500   0.0000       6.036859       164.2713 
 501   0.0000       6.050816       164.6511 
 502   0.0000       6.070327       165.1820 
 503   0.0000       6.073136       165.2584 
 504   0.0000       6.083998       165.5540 
 505   0.0000       6.097924       165.9329 
 506   0.0000       6.105528       166.1399 
 507   0.0000       6.122655       166.6059 
 508   0.0000       6.130112       166.8088 
 509   0.0000       6.158156       167.5719 
 510   0.0000       6.176069       168.0594 
 511   0.0000       6.180910       168.1911 
 512   0.0000       6.185108       168.3053 
 513   0.0000       6.206315       168.8824 
 514   0.0000       6.217679       169.1916 
 515   0.0000       6.233173       169.6133 
 516   0.0000       6.241876       169.8501 
 517   0.0000       6.246058       169.9639 
 518   0.0000       6.252944       170.1513 
 519   0.0000       6.259587       170.3320 
 520   0.0000       6.268524       170.5752 
 521   0.0000       6.272278       170.6774 
 522   0.0000       6.284293       171.0043 
 523   0.0000       6.301438       171.4708 
 524   0.0000       6.318924       171.9467 
 525   0.0000       6.326135       172.1429 
 526   0.0000       6.333300       172.3379 
 527   0.0000       6.342660       172.5926 
 528   0.0000       6.366601       173.2440 
 529   0.0000       6.370751       173.3569 
 530   0.0000       6.387373       173.8093 
 531   0.0000       6.408765       174.3914 
 532   0.0000       6.410045       174.4262 
 533   0.0000       6.426977       174.8869 
 534   0.0000       6.435561       175.1205 
 535   0.0000       6.442083       175.2980 
 536   0.0000       6.445024       175.3780 
 537   0.0000       6.467002       175.9761 
 538   0.0000       6.468205       176.0088 
 539   0.0000       6.478768       176.2963 
 540   0.0000       6.484935       176.4641 
 541   0.0000       6.487806       176.5422 
 542   0.0000       6.492707       176.6755 
 543   0.0000       6.501745       176.9215 
 544   0.0000       6.506483       177.0504 
 545   0.0000       6.507512       177.0784 
 546   0.0000       6.525937       177.5798 
 547   0.0000       6.533039       177.7730 
 548   0.0000       6.538871       177.9317 
 549   0.0000       6.544804       178.0932 
 550   0.0000       6.561204       178.5394 
 551   0.0000       6.565785       178.6641 
 552   0.0000       6.578156       179.0007 
 553   0.0000       6.583088       179.1349 
 554   0.0000       6.593141       179.4085 
 555   0.0000       6.602897       179.6739 
 556   0.0000       6.609438       179.8519 
 557   0.0000       6.615880       180.0272 
 558   0.0000       6.623588       180.2370 
 559   0.0000       6.631305       180.4470 
 560   0.0000       6.648317       180.9099 
 561   0.0000       6.660437       181.2397 
 562   0.0000       6.666473       181.4040 
 563   0.0000       6.675312       181.6445 
 564   0.0000       6.687168       181.9671 
 565   0.0000       6.693075       182.1278 
 566   0.0000       6.700689       182.3350 
 567   0.0000       6.713033       182.6709 
 568   0.0000       6.719559       182.8485 
 569   0.0000       6.746826       183.5905 
 570   0.0000       6.757231       183.8736 
 571   0.0000       6.765716       184.1045 
 572   0.0000       6.780154       184.4974 
 573   0.0000       6.798206       184.9886 
 574   0.0000       6.813603       185.4076 
 575   0.0000       6.837955       186.0702 
 576   0.0000       6.850071       186.3999 
 577   0.0000       6.881218       187.2475 
 578   0.0000       6.886944       187.4033 
 579   0.0000       6.898361       187.7140 
 580   0.0000       6.920254       188.3097 
 581   0.0000       6.944637       188.9732 
 582   0.0000       6.960850       189.4144 
 583   0.0000       6.968941       189.6345 
 584   0.0000       6.989715       190.1998 
 585   0.0000       7.006274       190.6504 
 586   0.0000       7.026113       191.1902 
 587   0.0000       7.047552       191.7736 
 588   0.0000       7.070473       192.3973 
 589   0.0000       7.078785       192.6235 
 590   0.0000       7.089960       192.9276 
 591   0.0000       7.109672       193.4640 
 592   0.0000       7.119601       193.7342 
 593   0.0000       7.125732       193.9010 
 594   0.0000       7.139147       194.2661 
 595   0.0000       7.148733       194.5269 
 596   0.0000       7.163418       194.9265 
 597   0.0000       7.180735       195.3977 
 598   0.0000       7.203198       196.0090 
 599   0.0000       7.228169       196.6885 
 600   0.0000       7.238025       196.9567 
 601   0.0000       7.265763       197.7115 
 602   0.0000       7.284126       198.2112 
 603   0.0000       7.286471       198.2750 
 604   0.0000       7.320234       199.1937 
 605   0.0000       7.331490       199.5000 
 606   0.0000       7.344637       199.8577 
 607   0.0000       7.367864       200.4898 
 608   0.0000       7.381592       200.8633 
 609   0.0000       7.383108       200.9046 
 610   0.0000       7.428532       202.1406 
 611   0.0000       7.437081       202.3733 
 612   0.0000       7.451247       202.7587 
 613   0.0000       7.455777       202.8820 
 614   0.0000       7.471871       203.3199 
 615   0.0000       7.478135       203.4904 
 616   0.0000       7.501896       204.1370 
 617   0.0000       7.536225       205.0711 
 618   0.0000       7.555609       205.5986 
 619   0.0000       7.573563       206.0871 
 620   0.0000       7.585818       206.4206 
 621   0.0000       7.593902       206.6406 
 622   0.0000       7.604623       206.9323 
 623   0.0000       7.622392       207.4158 
 624   0.0000       7.628510       207.5823 
 625   0.0000       7.642024       207.9501 
 626   0.0000       7.655030       208.3040 
 627   0.0000       7.656054       208.3318 
 628   0.0000       7.673468       208.8057 
 629   0.0000       7.682180       209.0428 
 630   0.0000       7.695207       209.3972 
 631   0.0000       7.697915       209.4709 
 632   0.0000       7.720046       210.0731 
 633   0.0000       7.745507       210.7660 
 634   0.0000       7.750219       210.8942 
 635   0.0000       7.758903       211.1305 
 636   0.0000       7.773377       211.5243 
 637   0.0000       7.778107       211.6530 
 638   0.0000       7.788411       211.9334 
 639   0.0000       7.798393       212.2051 
 640   0.0000       7.835644       213.2187 
 641   0.0000       7.843115       213.4220 
 642   0.0000       7.850402       213.6203 
 643   0.0000       7.872750       214.2284 
 644   0.0000       7.881868       214.4765 
 645   0.0000       7.887584       214.6321 
 646   0.0000       7.905240       215.1125 
 647   0.0000       7.926055       215.6789 
 648   0.0000       7.930638       215.8036 
 649   0.0000       7.939479       216.0442 
 650   0.0000       7.956045       216.4950 
 651   0.0000       7.963506       216.6980 
 652   0.0000       7.969850       216.8706 
 653   0.0000       7.992866       217.4969 
 654   0.0000       7.999504       217.6776 
 655   0.0000       8.008083       217.9110 
 656   0.0000       8.045381       218.9259 
 657   0.0000       8.053559       219.1485 
 658   0.0000       8.058195       219.2746 
 659   0.0000       8.064492       219.4460 
 660   0.0000       8.071445       219.6352 
 661   0.0000       8.091175       220.1721 
 662   0.0000       8.098726       220.3775 
 663   0.0000       8.106210       220.5812 
 664   0.0000       8.111115       220.7147 
 665   0.0000       8.143070       221.5842 
 666   0.0000       8.149283       221.7533 
 667   0.0000       8.164343       222.1631 
 668   0.0000       8.170851       222.3402 
 669   0.0000       8.179270       222.5693 
 670   0.0000       8.207978       223.3504 
 671   0.0000       8.217101       223.5987 
 672   0.0000       8.221573       223.7204 
 673   0.0000       8.236015       224.1134 
 674   0.0000       8.247918       224.4373 
 675   0.0000       8.277089       225.2310 
 676   0.0000       8.286210       225.4792 
 677   0.0000       8.292288       225.6446 
 678   0.0000       8.301616       225.8985 
 679   0.0000       8.320318       226.4074 
 680   0.0000       8.329927       226.6688 
 681   0.0000       8.333789       226.7739 
 682   0.0000       8.344314       227.0603 
 683   0.0000       8.363771       227.5898 
 684   0.0000       8.373218       227.8468 
 685   0.0000       8.388442       228.2611 
 686   0.0000       8.401928       228.6281 
 687   0.0000       8.411285       228.8827 
 688   0.0000       8.434518       229.5149 
 689   0.0000       8.444141       229.7768 
 690   0.0000       8.450041       229.9373 
 691   0.0000       8.458417       230.1652 
 692   0.0000       8.466990       230.3985 
 693   0.0000       8.474539       230.6039 
 694   0.0000       8.478995       230.7252 
 695   0.0000       8.494592       231.1496 
 696   0.0000       8.525706       231.9963 
 697   0.0000       8.539691       232.3768 
 698   0.0000       8.548473       232.6158 
 699   0.0000       8.554511       232.7801 
 700   0.0000       8.565662       233.0835 
 701   0.0000       8.599397       234.0015 
 702   0.0000       8.607596       234.2246 
 703   0.0000       8.639853       235.1024 
 704   0.0000       8.652237       235.4393 
 705   0.0000       8.662152       235.7091 
 706   0.0000       8.673956       236.0303 
 707   0.0000       8.694503       236.5894 
 708   0.0000       8.699971       236.7383 
 709   0.0000       8.716589       237.1904 
 710   0.0000       8.726678       237.4650 
 711   0.0000       8.739179       237.8052 
 712   0.0000       8.746494       238.0042 
 713   0.0000       8.753255       238.1882 
 714   0.0000       8.774863       238.7762 
 715   0.0000       8.778986       238.8883 
 716   0.0000       8.790043       239.1892 
 717   0.0000       8.797582       239.3944 
 718   0.0000       8.800092       239.4627 
 719   0.0000       8.805356       239.6059 
 720   0.0000       8.818550       239.9649 
 721   0.0000       8.824291       240.1212 
 722   0.0000       8.832752       240.3514 
 723   0.0000       8.856935       241.0095 
 724   0.0000       8.860304       241.1011 
 725   0.0000       8.872501       241.4330 
 726   0.0000       8.889072       241.8840 
 727   0.0000       8.900472       242.1941 
 728   0.0000       8.927569       242.9315 
 729   0.0000       8.938907       243.2400 
 730   0.0000       8.961237       243.8477 
 731   0.0000       8.989546       244.6180 
 732   0.0000       8.996456       244.8060 
 733   0.0000       9.010561       245.1898 
 734   0.0000       9.020403       245.4576 
 735   0.0000       9.030601       245.7352 
 736   0.0000       9.044980       246.1264 
 737   0.0000       9.067921       246.7507 
 738   0.0000       9.092644       247.4234 
 739   0.0000       9.100905       247.6482 
 740   0.0000       9.111625       247.9399 
 741   0.0000       9.126435       248.3429 
 742   0.0000       9.151395       249.0221 
 743   0.0000       9.177274       249.7263 
 744   0.0000       9.184928       249.9346 
 745   0.0000       9.199731       250.3374 
 746   0.0000       9.226276       251.0597 
 747   0.0000       9.239826       251.4284 
 748   0.0000       9.259260       251.9573 
 749   0.0000       9.264719       252.1058 
 750   0.0000       9.277912       252.4648 
 751   0.0000       9.287440       252.7241 
 752   0.0000       9.295142       252.9337 
 753   0.0000       9.298949       253.0373 
 754   0.0000       9.315551       253.4890 
 755   0.0000       9.326070       253.7753 
 756   0.0000       9.330211       253.8880 
 757   0.0000       9.346023       254.3182 
 758   0.0000       9.360454       254.7109 
 759   0.0000       9.366174       254.8666 
 760   0.0000       9.377679       255.1796 
 761   0.0000       9.389120       255.4910 
 762   0.0000       9.405765       255.9439 
 763   0.0000       9.412886       256.1377 
 764   0.0000       9.422796       256.4073 
 765   0.0000       9.430480       256.6164 
 766   0.0000       9.445542       257.0263 
 767   0.0000       9.452083       257.2043 
 768   0.0000       9.454746       257.2767 
 769   0.0000       9.476818       257.8773 
 770   0.0000       9.505312       258.6527 
 771   0.0000       9.511140       258.8113 
 772   0.0000       9.528581       259.2859 
 773   0.0000       9.540092       259.5991 
 774   0.0000       9.547487       259.8003 
 775   0.0000       9.572404       260.4784 
 776   0.0000       9.585739       260.8412 
 777   0.0000       9.603757       261.3315 
 778   0.0000       9.621243       261.8073 
 779   0.0000       9.639989       262.3174 
 780   0.0000       9.653897       262.6959 
 781   0.0000       9.665610       263.0146 
 782   0.0000       9.672481       263.2016 
 783   0.0000       9.706136       264.1174 
 784   0.0000       9.711724       264.2694 
 785   0.0000       9.755111       265.4501 
 786   0.0000       9.802103       266.7288 
 787   0.0000       9.834330       267.6057 
 788   0.0000       9.859039       268.2781 
 789   0.0000       9.891696       269.1667 
 790   0.0000       9.954479       270.8751 
 791   0.0000       9.993360       271.9331 
 792   0.0000      10.028364       272.8857 
 793   0.0000      10.054113       273.5863 
 794   0.0000      10.078413       274.2476 
 795   0.0000      10.110575       275.1227 
 796   0.0000      10.193551       277.3806 
 797   0.0000      10.198176       277.5065 
 798   0.0000      10.217419       278.0301 
 799   0.0000      10.228284       278.3258 
 800   0.0000      10.257467       279.1199 
 801   0.0000      10.266700       279.3711 
 802   0.0000      10.293461       280.0993 
 803   0.0000      10.315397       280.6962 
 804   0.0000      10.331747       281.1411 
 805   0.0000      10.359270       281.8901 
 806   0.0000      10.406930       283.1870 
 807   0.0000      10.433819       283.9187 
 808   0.0000      10.439204       284.0652 
 809   0.0000      10.449170       284.3364 
 810   0.0000      10.454834       284.4905 
 811   0.0000      10.461743       284.6785 
 812   0.0000      10.485675       285.3297 
 813   0.0000      10.508786       285.9586 
 814   0.0000      10.523384       286.3558 
 815   0.0000      10.538600       286.7699 
 816   0.0000      10.566470       287.5283 
 817   0.0000      10.594030       288.2782 
 818   0.0000      10.614827       288.8441 
 819   0.0000      10.619276       288.9652 
 820   0.0000      10.630810       289.2790 
 821   0.0000      10.635411       289.4043 
 822   0.0000      10.642062       289.5852 
 823   0.0000      10.677949       290.5618 
 824   0.0000      10.726164       291.8738 
 825   0.0000      10.754973       292.6577 
 826   0.0000      10.760551       292.8095 
 827   0.0000      10.769676       293.0578 
 828   0.0000      10.777709       293.2764 
 829   0.0000      10.807914       294.0983 
 830   0.0000      10.837564       294.9051 
 831   0.0000      10.850962       295.2697 
 832   0.0000      10.867661       295.7241 
 833   0.0000      10.872356       295.8519 
 834   0.0000      10.883562       296.1568 
 835   0.0000      10.909279       296.8566 
 836   0.0000      10.955096       298.1033 
 837   0.0000      10.960592       298.2529 
 838   0.0000      10.973301       298.5987 
 839   0.0000      10.993458       299.1472 
 840   0.0000      11.009090       299.5726 
 841   0.0000      11.042315       300.4767 
 842   0.0000      11.069006       301.2030 
 843   0.0000      11.120623       302.6075 
 844   0.0000      11.179774       304.2171 
 845   0.0000      11.219703       305.3036 
 846   0.0000      11.253814       306.2319 
 847   0.0000      11.280584       306.9603 
 848   0.0000      11.302712       307.5624 
 849   0.0000      11.335874       308.4648 
 850   0.0000      11.483323       312.4771 
 851   0.0000      11.494307       312.7760 
 852   0.0000      11.617325       316.1235 
 853   0.0000      11.684529       317.9522 
 854   0.0000      11.690806       318.1230 
 855   0.0000      11.695813       318.2593 
 856   0.0000      11.725512       319.0674 
 857   0.0000      11.730121       319.1928 
 858   0.0000      11.758743       319.9717 
 859   0.0000      11.780685       320.5687 
 860   0.0000      11.802649       321.1664 
 861   0.0000      11.835451       322.0590 
 862   0.0000      11.842166       322.2417 
 863   0.0000      11.904432       323.9361 
 864   0.0000      11.961599       325.4916 
 865   0.0000      12.068273       328.3944 
 866   0.0000      12.093712       329.0866 
 867   0.0000      12.171518       331.2038 
 868   0.0000      12.179050       331.4088 
 869   0.0000      12.243382       333.1594 
 870   0.0000      12.254397       333.4591 
 871   0.0000      12.416527       337.8709 
 872   0.0000      12.432077       338.2940 
 873   0.0000      12.463349       339.1450 
 874   0.0000      12.481138       339.6290 
 875   0.0000      12.522402       340.7519 
 876   0.0000      12.532781       341.0343 
 877   0.0000      12.601536       342.9052 
 878   0.0000      12.822792       348.9259 
 879   0.0000      12.830588       349.1381 
 880   0.0000      12.840275       349.4016 
 881   0.0000      12.859271       349.9185 
 882   0.0000      12.875849       350.3697 
 883   0.0000      12.884993       350.6185 
 884   0.0000      12.898096       350.9750 
 885   0.0000      12.907587       351.2333 
 886   0.0000      12.971844       352.9818 
 887   0.0000      12.998385       353.7040 
 888   0.0000      13.028907       354.5346 
 889   0.0000      13.034735       354.6932 
 890   0.0000      13.491698       367.1278 
 891   0.0000      13.516267       367.7963 
 892   0.0000      13.920827       378.8050 
 893   0.0000      13.943693       379.4272 
 894   0.0000      14.288916       388.8212 
 895   0.0000      14.325099       389.8058 
 896   0.0000      14.488765       394.2593 
 897   0.0000      14.546593       395.8329 
 898   0.0000      14.610543       397.5731 
 899   0.0000      14.659237       398.8981 
 900   0.0000      25.035600       681.2533 
 901   0.0000      25.061100       681.9472 
 902   0.0000      26.193274       712.7552 
 903   0.0000      27.060065       736.3418 
 904   0.0000      27.160267       739.0684 
 905   0.0000      27.379239       745.0270 
 906   0.0000      34.309707       933.6146 
 907   0.0000      34.331607       934.2105 
 908   0.0000      43.228617      1176.3105 
 909   0.0000      43.293498      1178.0760 

                    ********************************
                    * MULLIKEN POPULATION ANALYSIS *
                    ********************************

-----------------------
MULLIKEN ATOMIC CHARGES
-----------------------
   0 C :   -0.250455
   1 H :    0.060851
   2 H :    0.094000
   3 H :    0.129976
   4 C :    0.481574
   5 O :   -0.497046
   6 N :   -0.379669
   7 H :    0.167651
   8 C :    0.025540
   9 H :    0.092204
  10 C :   -0.219949
  11 H :    0.098022
  12 H :    0.110654
  13 H :    0.108520
  14 C :    0.494383
  15 O :   -0.480391
  16 N :   -0.382621
  17 H :    0.180314
  18 C :   -0.091735
  19 H :    0.070005
  20 H :    0.109847
  21 H :    0.078323
Sum of atomic charges:   -0.0000000

--------------------------------
MULLIKEN REDUCED ORBITAL CHARGES
--------------------------------
  0 C s       :     3.218095  s :     3.218095
      pz      :     0.973304  p :     2.957258
      px      :     0.982214
      py      :     1.001741
      dz2     :     0.005876  d :     0.066547
      dxz     :     0.019208
      dyz     :     0.018777
      dx2y2   :     0.012179
      dxy     :     0.010508
      f0      :     0.000561  f :     0.007845
      f+1     :     0.001333
      f-1     :     0.000782
      f+2     :     0.002060
      f-2     :     0.002005
      f+3     :     0.000580
      f-3     :     0.000524
      g0      :     0.000060  g :     0.000709
      g+1     :     0.000062
      g-1     :     0.000075
      g+2     :     0.000087
      g-2     :     0.000091
      g+3     :     0.000109
      g-3     :     0.000132
      g+4     :     0.000025
      g-4     :     0.000069
  1 H s       :     0.899943  s :     0.899943
      pz      :     0.011153  p :     0.035428
      px      :     0.013386
      py      :     0.010889
      dz2     :     0.000596  d :     0.003542
      dxz     :     0.001077
      dyz     :     0.000298
      dx2y2   :     0.000783
      dxy     :     0.000788
      f0      :     0.000019  f :     0.000236
      f+1     :     0.000043
      f-1     :     0.000009
      f+2     :     0.000053
      f-2     :     0.000036
      f+3     :     0.000037
      f-3     :     0.000040
  2 H s       :     0.867650  s :     0.867650
      pz      :     0.013249  p :     0.034514
      px      :     0.012136
      py      :     0.009129
      dz2     :     0.001137  d :     0.003601
      dxz     :     0.000762
      dyz     :     0.000762
      dx2y2   :     0.000495
      dxy     :     0.000444
      f0      :     0.000029  f :     0.000234
      f+1     :     0.000068
      f-1     :     0.000023
      f+2     :     0.000042
      f-2     :     0.000048
      f+3     :     0.000011
      f-3     :     0.000014
  3 H s       :     0.835230  s :     0.835230
      pz      :     0.010324  p :     0.031494
      px      :     0.009964
      py      :     0.011206
      dz2     :     0.000435  d :     0.003100
      dxz     :     0.000231
      dyz     :     0.000929
      dx2y2   :     0.000671
      dxy     :     0.000833
      f0      :     0.000017  f :     0.000201
      f+1     :     0.000009
      f-1     :     0.000037
      f+2     :     0.000035
      f-2     :     0.000029
      f+3     :     0.000039
      f-3     :     0.000035
  4 C s       :     3.037613  s :     3.037613
      pz      :     0.762427  p :     2.180587
      px      :     0.685704
      py      :     0.732455
      dz2     :     0.058314  d :     0.266678
      dxz     :     0.034694
      dyz     :     0.070001
      dx2y2   :     0.046877
      dxy     :     0.056793
      f0      :     0.004997  f :     0.029820
      f+1     :     0.003694
      f-1     :     0.003935
      f+2     :     0.007111
      f-2     :     0.003367
      f+3     :     0.004386
      f-3     :     0.002331
      g0      :     0.000299  g :     0.003728
      g+1     :     0.000426
      g-1     :     0.000465
      g+2     :     0.000604
      g-2     :     0.000453
      g+3     :     0.000506
      g-3     :     0.000395
      g+4     :     0.000296
      g-4     :     0.000284
  5 O s       :     3.770901  s :     3.770901
      pz      :     1.457054  p :     4.680659
      px      :     1.461556
      py      :     1.762049
      dz2     :     0.011562  d :     0.041217
      dxz     :     0.009670
      dyz     :     0.009005
      dx2y2   :     0.005405
      dxy     :     0.005574
      f0      :     0.000779  f :     0.004062
      f+1     :     0.000567
      f-1     :     0.000720
      f+2     :     0.000703
      f-2     :     0.000758
      f+3     :     0.000243
      f-3     :     0.000292
      g0      :     0.000021  g :     0.000207
      g+1     :     0.000031
      g-1     :     0.000024
      g+2     :     0.000022
      g-2     :     0.000050
      g+3     :     0.000020
      g-3     :     0.000031
      g+4     :     0.000004
      g-4     :     0.000005
  6 N s       :     3.412539  s :     3.412539
      pz      :     1.291737  p :     3.902445
      px      :     1.516223
      py      :     1.094485
      dz2     :     0.010774  d :     0.054826
      dxz     :     0.006998
      dyz     :     0.012631
      dx2y2   :     0.009059
      dxy     :     0.015365
      f0      :     0.000691  f :     0.009360
      f+1     :     0.001066
      f-1     :     0.001264
      f+2     :     0.001319
      f-2     :     0.001246
      f+3     :     0.002055
      f-3     :     0.001720
      g0      :     0.000036  g :     0.000498
      g+1     :     0.000049
      g-1     :     0.000064
      g+2     :     0.000045
      g-2     :     0.000049
      g+3     :     0.000048
      g-3     :     0.000046
      g+4     :     0.000081
      g-4     :     0.000081
  7 H s       :     0.762340  s :     0.762340
      pz      :     0.024897  p :     0.063633
      px      :     0.024667
      py      :     0.014069
      dz2     :     0.002510  d :     0.005918
      dxz     :     0.000892
      dyz     :     0.001172
      dx2y2   :     0.000582
      dxy     :     0.000761
      f0      :     0.000142  f :     0.000458
      f+1     :     0.000098
      f-1     :     0.000068
      f+2     :     0.000054
      f-2     :     0.000059
      f+3     :     0.000015
      f-3     :     0.000022
  8 C s       :     3.154085  s :     3.154085
      pz      :     0.894868  p :     2.668408
      px      :     0.936217
      py      :     0.837323
      dz2     :     0.015638  d :     0.132687
      dxz     :     0.027404
      dyz     :     0.027802
      dx2y2   :     0.020637
      dxy     :     0.041206
      f0      :     0.001573  f :     0.017699
      f+1     :     0.001854
      f-1     :     0.003488
      f+2     :     0.002733
      f-2     :     0.003898
      f+3     :     0.002257
      f-3     :     0.001894
      g0      :     0.000129  g :     0.001581
      g+1     :     0.000146
      g-1     :     0.000138
      g+2     :     0.000125
      g-2     :     0.000252
      g+3     :     0.000275
      g-3     :     0.000247
      g+4     :     0.000159
      g-4     :     0.000109
  9 H s       :     0.871741  s :     0.871741
      pz      :     0.012579  p :     0.031050
      px      :     0.009820
      py      :     0.008651
      dz2     :     0.000831  d :     0.004739
      dxz     :     0.000891
      dyz     :     0.000921
      dx2y2   :     0.001273
      dxy     :     0.000823
      f0      :     0.000017  f :     0.000266
      f+1     :     0.000046
      f-1     :     0.000025
      f+2     :     0.000044
      f-2     :     0.000053
      f+3     :     0.000036
      f-3     :     0.000045
 10 C s       :     3.175777  s :     3.175777
      pz      :     0.972382  p :     2.948415
      px      :     0.948378
      py      :     1.027655
      dz2     :     0.011959  d :     0.087329
      dxz     :     0.020074
      dyz     :     0.019207
      dx2y2   :     0.012731
      dxy     :     0.023358
      f0      :     0.000539  f :     0.007714
      f+1     :     0.001421
      f-1     :     0.000655
      f+2     :     0.001219
      f-2     :     0.002427
      f+3     :     0.000806
      f-3     :     0.000646
      g0      :     0.000047  g :     0.000715
      g+1     :     0.000081
      g-1     :     0.000069
      g+2     :     0.000080
      g-2     :     0.000118
      g+3     :     0.000121
      g-3     :     0.000110
      g+4     :     0.000027
      g-4     :     0.000062
 11 H s       :     0.862414  s :     0.862414
      pz      :     0.012194  p :     0.035959
      px      :     0.010909
      py      :     0.012855
      dz2     :     0.000398  d :     0.003385
      dxz     :     0.000488
      dyz     :     0.000868
      dx2y2   :     0.000825
      dxy     :     0.000806
      f0      :     0.000021  f :     0.000221
      f+1     :     0.000006
      f-1     :     0.000027
      f+2     :     0.000026
      f-2     :     0.000055
      f+3     :     0.000045
      f-3     :     0.000040
 12 H s       :     0.847534  s :     0.847534
      pz      :     0.015169  p :     0.038190
      px      :     0.009985
      py      :     0.013036
      dz2     :     0.001078  d :     0.003411
      dxz     :     0.000699
      dyz     :     0.000897
      dx2y2   :     0.000365
      dxy     :     0.000372
      f0      :     0.000031  f :     0.000212
      f+1     :     0.000029
      f-1     :     0.000058
      f+2     :     0.000043
      f-2     :     0.000033
      f+3     :     0.000013
      f-3     :     0.000003
 13 H s       :     0.853719  s :     0.853719
      pz      :     0.009551  p :     0.034114
      px      :     0.012358
      py      :     0.012206
      dz2     :     0.000464  d :     0.003431
      dxz     :     0.000601
      dyz     :     0.000439
      dx2y2   :     0.001178
      dxy     :     0.000749
      f0      :     0.000016  f :     0.000216
      f+1     :     0.000035
      f-1     :     0.000010
      f+2     :     0.000032
      f-2     :     0.000036
      f+3     :     0.000041
      f-3     :     0.000045
 14 C s       :     3.027428  s :     3.027428
      pz      :     0.742009  p :     2.183678
      px      :     0.745044
      py      :     0.696625
      dz2     :     0.028993  d :     0.259502
      dxz     :     0.101835
      dyz     :     0.014428
      dx2y2   :     0.034778
      dxy     :     0.079467
      f0      :     0.003422  f :     0.031296
      f+1     :     0.004514
      f-1     :     0.002026
      f+2     :     0.006891
      f-2     :     0.003973
      f+3     :     0.004413
      f-3     :     0.006058
      g0      :     0.000245  g :     0.003713
      g+1     :     0.000624
      g-1     :     0.000089
      g+2     :     0.000448
      g-2     :     0.000309
      g+3     :     0.000555
      g-3     :     0.000299
      g+4     :     0.000483
      g-4     :     0.000661
 15 O s       :     3.770371  s :     3.770371
      pz      :     1.697216  p :     4.663363
      px      :     1.396215
      py      :     1.569931
      dz2     :     0.004889  d :     0.042303
      dxz     :     0.010906
      dyz     :     0.000518
      dx2y2   :     0.012875
      dxy     :     0.013115
      f0      :     0.000467  f :     0.004145
      f+1     :     0.000667
      f-1     :     0.000098
      f+2     :     0.000702
      f-2     :     0.000127
      f+3     :     0.000921
      f-3     :     0.001162
      g0      :     0.000015  g :     0.000210
      g+1     :     0.000028
      g-1     :     0.000001
      g+2     :     0.000028
      g-2     :     0.000008
      g+3     :     0.000025
      g-3     :     0.000005
      g+4     :     0.000050
      g-4     :     0.000050
 16 N s       :     3.435595  s :     3.435595
      pz      :     1.254648  p :     3.880365
[...]
  6 N s       :     2.715704  s :     2.715704
      pz      :     1.078718  p :     3.250060
      px      :     1.135341
      py      :     1.036001
      dz2     :     0.055091  d :     0.333048
      dxz     :     0.036984
      dyz     :     0.083100
      dx2y2   :     0.080267
      dxy     :     0.077605
      f0      :     0.005039  f :     0.052058
      f+1     :     0.003511
      f-1     :     0.009065
      f+2     :     0.009798
      f-2     :     0.005475
      f+3     :     0.008529
      f-3     :     0.010641
      g0      :     0.000359  g :     0.002673
      g+1     :     0.000123
      g-1     :     0.000303
      g+2     :     0.000171
      g-2     :     0.000241
      g+3     :     0.000119
      g-3     :     0.000437
      g+4     :     0.000509
      g-4     :     0.000412
  7 H s       :     0.725259  s :     0.725259
      pz      :     0.152703  p :     0.346310
      px      :     0.121661
      py      :     0.071946
      dz2     :     0.047308  d :     0.139383
      dxz     :     0.033638
      dyz     :     0.031465
      dx2y2   :     0.013488
      dxy     :     0.013485
      f0      :     0.007662  f :     0.023344
      f+1     :     0.003566
      f-1     :     0.003421
      f+2     :     0.003877
      f-2     :     0.003564
      f+3     :     0.000610
      f-3     :     0.000645
  8 C s       :     2.569372  s :     2.569372
      pz      :     0.870636  p :     2.556056
      px      :     0.883113
      py      :     0.802307
      dz2     :     0.125034  d :     0.778714
      dxz     :     0.159708
      dyz     :     0.192919
      dx2y2   :     0.102717
      dxy     :     0.198336
      f0      :     0.021532  f :     0.197495
      f+1     :     0.027226
      f-1     :     0.033687
      f+2     :     0.027650
      f-2     :     0.031378
      f+3     :     0.021563
      f-3     :     0.034459
      g0      :     0.001203  g :     0.013177
      g+1     :     0.001505
      g-1     :     0.001178
      g+2     :     0.001142
      g-2     :     0.001742
      g+3     :     0.001553
      g-3     :     0.001999
      g+4     :     0.001755
      g-4     :     0.001099
  9 H s       :     0.799557  s :     0.799557
      pz      :     0.062438  p :     0.199623
      px      :     0.073839
      py      :     0.063345
      dz2     :     0.012591  d :     0.071561
      dxz     :     0.016063
      dyz     :     0.011338
      dx2y2   :     0.016771
      dxy     :     0.014798
      f0      :     0.000537  f :     0.008953
      f+1     :     0.001813
      f-1     :     0.000917
      f+2     :     0.001473
      f-2     :     0.001512
      f+3     :     0.001167
      f-3     :     0.001535
 10 C s       :     2.550594  s :     2.550594
      pz      :     0.866516  p :     2.622536
      px      :     0.859424
      py      :     0.896597
      dz2     :     0.071369  d :     0.427130
      dxz     :     0.105557
      dyz     :     0.091068
      dx2y2   :     0.055080
      dxy     :     0.104056
      f0      :     0.010820  f :     0.077830
      f+1     :     0.015840
      f-1     :     0.009334
      f+2     :     0.009631
      f-2     :     0.013959
      f+3     :     0.008256
      f-3     :     0.009990
      g0      :     0.000151  g :     0.003492
      g+1     :     0.000880
      g-1     :     0.000328
      g+2     :     0.000368
      g-2     :     0.000442
      g+3     :     0.000435
      g-3     :     0.000413
      g+4     :     0.000163
      g-4     :     0.000314
 11 H s       :     0.802137  s :     0.802137
      pz      :     0.057345  p :     0.200281
      px      :     0.060979
      py      :     0.081958
      dz2     :     0.007114  d :     0.069694
      dxz     :     0.008711
      dyz     :     0.018892
      dx2y2   :     0.017125
      dxy     :     0.017852
      f0      :     0.000791  f :     0.008922
      f+1     :     0.000407
      f-1     :     0.001345
      f+2     :     0.001271
      f-2     :     0.001548
      f+3     :     0.001614
      f-3     :     0.001946
 12 H s       :     0.804404  s :     0.804404
      pz      :     0.075629  p :     0.204403
      px      :     0.060053
      py      :     0.068722
      dz2     :     0.020236  d :     0.070333
      dxz     :     0.016675
      dyz     :     0.014115
      dx2y2   :     0.010102
      dxy     :     0.009205
      f0      :     0.001559  f :     0.008989
      f+1     :     0.001455
      f-1     :     0.001808
      f+2     :     0.001864
      f-2     :     0.001443
      f+3     :     0.000592
      f-3     :     0.000268
 13 H s       :     0.799691  s :     0.799691
      pz      :     0.060101  p :     0.200742
      px      :     0.073553
      py      :     0.067087
      dz2     :     0.010581  d :     0.070395
      dxz     :     0.015168
      dyz     :     0.009884
      dx2y2   :     0.021216
      dxy     :     0.013546
      f0      :     0.000573  f :     0.009005
      f+1     :     0.001542
      f-1     :     0.000636
      f+2     :     0.001438
      f-2     :     0.001450
      f+3     :     0.001689
      f-3     :     0.001677
 14 C s       :     2.638329  s :     2.638329
      pz      :     0.806974  p :     2.482682
      px      :     0.980449
      py      :     0.695259
      dz2     :     0.167761  d :     1.163059
      dxz     :     0.369715
      dyz     :     0.098160
      dx2y2   :     0.230798
      dxy     :     0.296625
      f0      :     0.043255  f :     0.340763
      f+1     :     0.064729
      f-1     :     0.021873
      f+2     :     0.065650
      f-2     :     0.032452
      f+3     :     0.055671
      f-3     :     0.057134
      g0      :     0.002518  g :     0.043525
      g+1     :     0.006785
      g-1     :     0.001520
      g+2     :     0.004881
      g-2     :     0.002934
      g+3     :     0.007874
      g-3     :     0.002713
      g+4     :     0.005694
      g-4     :     0.008605
 15 O s       :     3.271211  s :     3.271211
      pz      :     1.435184  p :     4.249965
      px      :     1.463786
      py      :     1.350996
      dz2     :     0.011489  d :     0.100751
      dxz     :     0.031398
      dyz     :     0.001744
      dx2y2   :     0.031199
      dxy     :     0.024922
      f0      :     0.002777  f :     0.021026
      f+1     :     0.003233
      f-1     :     0.000322
      f+2     :     0.004160
      f-2     :     0.000874
      f+3     :     0.004621
      f-3     :     0.005040
      g0      :     0.000077  g :     0.001050
      g+1     :     0.000181
      g-1     :     0.000008
      g+2     :     0.000141
      g-2     :     0.000026
      g+3     :     0.000132
      g-3     :     0.000061
      g+4     :     0.000208
      g-4     :     0.000216
 16 N s       :     2.722018  s :     2.722018
      pz      :     1.074646  p :     3.262221
      px      :     1.040928
      py      :     1.146647
      dz2     :     0.073885  d :     0.342129
      dxz     :     0.096108
      dyz     :     0.057589
      dx2y2   :     0.070506
      dxy     :     0.044042
      f0      :     0.007197  f :     0.053947
      f+1     :     0.010713
      f-1     :     0.007324
      f+2     :     0.010111
      f-2     :     0.007798
      f+3     :     0.005952
      f-3     :     0.004852
      g0      :     0.000130  g :     0.002658
      g+1     :     0.000297
      g-1     :     0.000404
      g+2     :     0.000305
      g-2     :     0.000412
      g+3     :     0.000370
      g-3     :     0.000340
      g+4     :     0.000173
      g-4     :     0.000227
 17 H s       :     0.733414  s :     0.733414
      pz      :     0.094268  p :     0.337866
      px      :     0.134031
      py      :     0.109566
      dz2     :     0.017132  d :     0.135471
      dxz     :     0.038084
      dyz     :     0.009073
      dx2y2   :     0.027678
      dxy     :     0.043504
      f0      :     0.001488  f :     0.023100
      f+1     :     0.005229
      f-1     :     0.000162
      f+2     :     0.003432
      f-2     :     0.002996
      f+3     :     0.003982
      f-3     :     0.005812
 18 C s       :     2.564348  s :     2.564348
      pz      :     0.812989  p :     2.586321
      px      :     0.906714
      py      :     0.866618
      dz2     :     0.092666  d :     0.513063
      dxz     :     0.132288
      dyz     :     0.112352
      dx2y2   :     0.085687
      dxy     :     0.090072
      f0      :     0.029883  f :     0.119320
      f+1     :     0.010745
      f-1     :     0.019022
      f+2     :     0.021179
      f-2     :     0.017516
      f+3     :     0.011112
      f-3     :     0.009864
      g0      :     0.000869  g :     0.008403
      g+1     :     0.000584
      g-1     :     0.002401
      g+2     :     0.001192
      g-2     :     0.000933
      g+3     :     0.000744
      g-3     :     0.001039
      g+4     :     0.000201
      g-4     :     0.000440
 19 H s       :     0.822868  s :     0.822868
      pz      :     0.050374  p :     0.195829
      px      :     0.064097
      py      :     0.081359
      dz2     :     0.006064  d :     0.067047
      dxz     :     0.007810
      dyz     :     0.017149
      dx2y2   :     0.018422
      dxy     :     0.017602
      f0      :     0.000695  f :     0.008532
      f+1     :     0.000260
      f-1     :     0.001203
      f+2     :     0.001292
      f-2     :     0.001354
      f+3     :     0.001627
      f-3     :     0.002101
 20 H s       :     0.811929  s :     0.811929
      pz      :     0.059820  p :     0.197195
      px      :     0.077309
      py      :     0.060066
      dz2     :     0.012929  d :     0.068387
      dxz     :     0.014171
      dyz     :     0.011601
      dx2y2   :     0.018028
      dxy     :     0.011658
      f0      :     0.000527  f :     0.008752
      f+1     :     0.001980
      f-1     :     0.000653
      f+2     :     0.001717
      f-2     :     0.001499
      f+3     :     0.001101
      f-3     :     0.001276
 21 H s       :     0.822470  s :     0.822470
      pz      :     0.064180  p :     0.197807
      px      :     0.077753
      py      :     0.055875
      dz2     :     0.015415  d :     0.068220
      dxz     :     0.014597
      dyz     :     0.010572
      dx2y2   :     0.010777
      dxy     :     0.016859
      f0      :     0.000639  f :     0.008747
      f+1     :     0.002354
      f-1     :     0.000465
      f+2     :     0.001474
      f-2     :     0.001786
      f+3     :     0.000671
      f-3     :     0.001358


                      *****************************
                      * MAYER POPULATION ANALYSIS *
                      *****************************

  NA   - Mulliken gross atomic population
  ZA   - Total nuclear charge
  QA   - Mulliken gross atomic charge
  VA   - Mayer's total valence
  BVA  - Mayer's bonded valence
  FA   - Mayer's free valence

  ATOM       NA         ZA         QA         VA         BVA        FA
  0 C      6.2505     6.0000    -0.2505     3.9014     3.9014    -0.0000
  1 H      0.9391     1.0000     0.0609     1.0047     1.0047    -0.0000
  2 H      0.9060     1.0000     0.0940     0.9992     0.9992    -0.0000
  3 H      0.8700     1.0000     0.1300     1.0010     1.0010     0.0000
  4 C      5.5184     6.0000     0.4816     4.1271     4.1271    -0.0000
  5 O      8.4970     8.0000    -0.4970     2.0200     2.0200    -0.0000
  6 N      7.3797     7.0000    -0.3797     3.0149     3.0149    -0.0000
  7 H      0.8323     1.0000     0.1677     1.0310     1.0310    -0.0000
  8 C      5.9745     6.0000     0.0255     3.8048     3.8048    -0.0000
  9 H      0.9078     1.0000     0.0922     0.9852     0.9852    -0.0000
 10 C      6.2199     6.0000    -0.2199     3.9171     3.9171    -0.0000
 11 H      0.9020     1.0000     0.0980     1.0042     1.0042    -0.0000
 12 H      0.8893     1.0000     0.1107     1.0142     1.0142     0.0000
 13 H      0.8915     1.0000     0.1085     1.0119     1.0119    -0.0000
 14 C      5.5056     6.0000     0.4944     4.1260     4.1260    -0.0000
 15 O      8.4804     8.0000    -0.4804     2.0513     2.0513    -0.0000
 16 N      7.3826     7.0000    -0.3826     3.0717     3.0717    -0.0000
 17 H      0.8197     1.0000     0.1803     1.0069     1.0069    -0.0000
 18 C      6.0917     6.0000    -0.0917     3.9132     3.9132     0.0000
 19 H      0.9300     1.0000     0.0700     0.9769     0.9769    -0.0000
 20 H      0.8902     1.0000     0.1098     0.9865     0.9865     0.0000
 21 H      0.9217     1.0000     0.0783     1.0004     1.0004     0.0000

  Mayer bond orders larger than 0.100000
B(  0-C ,  1-H ) :   0.9872 B(  0-C ,  2-H ) :   0.9683 B(  0-C ,  3-H ) :   0.9780 
B(  0-C ,  4-C ) :   0.9815 B(  4-C ,  5-O ) :   1.9677 B(  4-C ,  6-N ) :   1.1595 
B(  6-N ,  7-H ) :   0.9635 B(  6-N ,  8-C ) :   0.8870 B(  8-C ,  9-H ) :   0.9649 
B(  8-C , 10-C ) :   1.0001 B(  8-C , 14-C ) :   0.9544 B( 10-C , 11-H ) :   0.9783 
B( 10-C , 12-H ) :   0.9875 B( 10-C , 13-H ) :   0.9693 B( 14-C , 15-O ) :   1.9711 
B( 14-C , 16-N ) :   1.1705 B( 16-N , 17-H ) :   0.9676 B( 16-N , 18-C ) :   0.9478 
B( 18-C , 19-H ) :   0.9733 B( 18-C , 20-H ) :   0.9742 B( 18-C , 21-H ) :   0.9907 


-------
TIMINGS
-------

Total SCF time: 0 days 1 hours 23 min 32 sec 

Total time                  ....    5012.123 sec
Sum of individual times     ....    5003.623 sec  ( 99.8%)

Fock matrix formation       ....    4952.297 sec  ( 98.8%)
Diagonalization             ....      16.704 sec  (  0.3%)
Density matrix formation    ....       0.878 sec  (  0.0%)
Population analysis         ....       1.753 sec  (  0.0%)
Initial guess               ....       5.965 sec  (  0.1%)
Orbital Transformation      ....       0.000 sec  (  0.0%)
Orbital Orthonormalization  ....       0.000 sec  (  0.0%)
DIIS solution               ....       5.598 sec  (  0.1%)
SOSCF solution              ....      19.797 sec  (  0.4%)


           ************************************************************
           *        Program running with 4 parallel MPI-processes     *
           *              working on a common directory               *
           ************************************************************

------------------------------------------------------------------------------
                                ORCA  MP2 
------------------------------------------------------------------------------

Freezing NCore=20 chemical core electrons

----------
MP2 ENERGY (disk based algorithm)
----------

Dimension of the basis                    ...  910
Memory devoted to MP2                     ... 3000 MB   
Data format for buffers                   ... DOUBLE
Compression type for matrix containers    ... UNCOMPRESSED

-------------------------------
PARTIAL EXCHANGE TRANSFORMATION
-------------------------------

Transformation type                        ... one-operator
Generation of integrals (i,mue|j,nue)      ... ON
Generation of integrals (mue,kappa|nue,tau)... OFF
Generation of integrals (i,mue|a,nue)      ... OFF
Dimension of the basis                     ...  910
Number of internal MOs                     ...   29 (  10-  38)
Pair cutoff                                ... 1.000e-11 Eh
Number of AO pairs in the trafo            ... 414505
Total Number of distinct AO pairs          ... 414505
Memory devoted for trafo                   ... 3000.0 MB 
Max. Number of MO pairs treated together   ...  474      
Number Format for Storage                  ... Double (8 Byte)
Integral package used                      ... LIBINT

Starting integral evaluation:
    ... done with AO integral generation
Closing buffer AOK     ( 0.52 GB; CompressionRatio= 1.23)
Collecting buffer AOK 
Number of MO pairs included in the trafo   ...  435
------------------------
SORTING OF (i,mue|j,nue)
------------------------

IBATCH = 1 of  1
Closing buffer KAO     ( 0.67 GB; CompressionRatio= 1.00)
Collecting buffer KAO 
N(AO-Batches) Done                         ... 220045319 
N(AO-Batches) Skipped                      ... 138409581 
N(IJ)-pairs Skipped                        ...         0 
TOTAL TIME for half transformation         ...  4294.583 sec
AO-integral generation                     ...  1890.135 sec
Half transformation                        ...  1974.551 sec
K-integral sorting                         ...    10.423 sec
Process 1:   Internal MO  18

Finished integral transformation - now doing MP2 part

OPERATOR COMBINATION   0   0: ij=( 10.. 38, 10.. 38)
Process 0:   Internal MO  12
Process 0:   Internal MO  15
Process 2:   Internal MO  27
Process 1:   Internal MO  21
Process 3:   Internal MO  36
Process 1:   Internal MO  24
Process 2:   Internal MO  30
Process 2:   Internal MO  33
-----------------------------------------------
 MP2 CORRELATION ENERGY   :     -2.011780641 Eh
-----------------------------------------------


-------
TIMINGS
-------
Total time                : 4405.542 sec
Integral trafo            : 4295.478 sec ( 97.5%)
K(i,j)                    :   22.621 sec (  0.5%)
T(i,j)                    :    0.038 sec (  0.0%)

---------------------------------------
MP2 TOTAL ENERGY:     -495.069407654 Eh
---------------------------------------

-------------------------   --------------------
FINAL SINGLE POINT ENERGY      -495.069407653855
-------------------------   --------------------


                            ***************************************
                            *     ORCA property calculations      *
                            ***************************************


  WARNING: The energy has been calculated at the MP2 level but the densities
           used in the property calculations are still SCF densities
           MP2 response densities have not been calculated 
           use %mp2 Density relaxed end
           or  %mp2 Density unrelaxed end

                                    ---------------------
                                    Active property flags
                                    ---------------------
   (+) Dipole Moment


------------------------------------------------------------------------------
                       ORCA ELECTRIC PROPERTIES CALCULATION
------------------------------------------------------------------------------

Dipole Moment Calculation                       ... on
Quadrupole Moment Calculation                   ... off
Polarizability Calculation                      ... off
GBWName                                         ... 120+60.gbw
Electron density file                           ... 120+60.scfp
The origin for moment calculation is the CENTER OF MASS  = ( 2.675811, -0.118190  7.893272)

-------------
DIPOLE MOMENT
-------------
                                X             Y             Z
Electronic contribution:      1.51348       1.13984      -2.40008
Nuclear contribution   :     -3.42822      -2.13383       3.52116
                        -----------------------------------------
Total Dipole Moment    :     -1.91474      -0.99398       1.12108
                        -----------------------------------------
Magnitude (a.u.)       :      2.43126
Magnitude (Debye)      :      6.17978



--------------------
Rotational spectrum 
--------------------
 
Rotational constants in cm-1:     0.072317     0.026418     0.021468 
Rotational constants in MHz :  2168.020228   791.999025   643.600866 

 Dipole components along the rotational axes: 
x,y,z [a.u.] :     0.976696     1.799988    -1.310403 
x,y,z [Debye]:     2.482563     4.575206    -3.330778 

 

Timings for individual modules:

Sum of individual times         ...     9426.687 sec (= 157.111 min)
GTO integral calculation        ...        4.600 sec (=   0.077 min)   0.0 %
SCF iterations                  ...     5014.689 sec (=  83.578 min)  53.2 %
MP2 module                      ...     4407.398 sec (=  73.457 min)  46.8 %
                             ****ORCA TERMINATED NORMALLY****
TOTAL RUN TIME: 0 days 2 hours 37 minutes 8 seconds 841 msec
