<?xml version="1.0" encoding="ISO-8859-1"?>
<modeling>
 <generator>
  <i name="program" type="string">vasp </i>
  <i name="version" type="string">5.4.4.18Apr17-6-g9f103f2a35  </i>
  <i name="subversion" type="string">(build Jul 16 2019 12:12:28) complex            parallel </i>
  <i name="platform" type="string">LinuxIFC </i>
  <i name="date" type="string">2022 05 10 </i>
  <i name="time" type="string">23:46:32 </i>
 </generator>
 <incar>
  <i type="int" name="ISTART">     0</i>
  <i type="string" name="PREC">accurate</i>
  <i type="string" name="ALGO"> FAST</i>
  <i type="int" name="ISPIN">     2</i>
  <i type="int" name="ICHARG">     1</i>
  <i type="int" name="NELM">   100</i>
  <i type="int" name="NELMDL">   -10</i>
  <i type="int" name="IBRION">     2</i>
  <i name="EDIFF">      0.00000100</i>
  <i name="EDIFFG">     -0.02000000</i>
  <i type="int" name="NSW">   700</i>
  <i type="int" name="ISIF">     2</i>
  <i type="int" name="ISYM">     2</i>
  <i name="ENCUT">    400.00000000</i>
  <i name="POTIM">      0.50000000</i>
  <i type="string" name="LREAL"> AUTO</i>
  <v name="ROPT">     -0.00020000     -0.00020000     -0.00020000      0.00000000      0.00000000</v>
  <i type="logical" name="LPLANE"> T  </i>
  <i type="int" name="ISMEAR">     1</i>
  <i name="SIGMA">      0.10000000</i>
  <i type="int" name="NWRITE">     1</i>
  <i type="logical" name="LWAVE"> F  </i>
  <i type="logical" name="LCHARG"> T  </i>
  <i type="logical" name="LVTOT"> F  </i>
  <v type="int" name="KPOINT_BSE">    -1     0     0     0</v>
  <i type="int" name="NELM">   100</i>
  <i type="string" name="GGA"> MK</i>
  <i type="int" name="VOSKOWN">     1</i>
  <i name="PARAM1">      0.12340000</i>
  <i name="PARAM2">      1.00000000</i>
  <i type="logical" name="LUSE_VDW"> T  </i>
  <i name="AGGAC">      0.00000000</i>
  <i type="logical" name="LDIPOL"> T  </i>
  <i type="int" name="IDIPOL">     3</i>
 </incar>
 <structure name="primitive_cell" >
  <crystal>
   <varray name="basis" >
    <v>       8.75400000       0.00000000       0.00000000 </v>
    <v>      -4.37700000       7.58118638       0.00000000 </v>
    <v>       0.00000000       0.00000000      20.96578547 </v>
   </varray>
   <i name="volume">   1391.40914632 </i>
   <varray name="rec_basis" >
    <v>       0.11423349       0.06595274       0.00000000 </v>
    <v>       0.00000000       0.13190548       0.00000000 </v>
    <v>       0.00000000       0.00000000       0.04769676 </v>
   </varray>
  </crystal>
  <varray name="positions" >
   <v>       0.22222222       0.11111111       0.00000000 </v>
   <v>       0.33333333       0.33333333       0.11363913 </v>
   <v>       0.00000000       0.00000000       0.11363913 </v>
   <v>       0.33333333       0.00000000       0.11363913 </v>
   <v>       0.22222222       0.44444444       0.00000000 </v>
   <v>      -0.44444444       0.44444444       0.00000000 </v>
   <v>      -0.11111111      -0.22222222       0.00000000 </v>
   <v>       0.22222222      -0.22222222       0.00000000 </v>
   <v>      -0.11111111       0.11111111       0.00000000 </v>
   <v>      -0.44444444       0.11111111       0.00000000 </v>
   <v>       0.00000000      -0.33333333       0.11363913 </v>
   <v>       0.00000000       0.33333333       0.11363913 </v>
   <v>      -0.33333333       0.33333333       0.11363913 </v>
   <v>       0.33333333      -0.33333333       0.11363913 </v>
   <v>      -0.33333333      -0.33333333       0.11363913 </v>
   <v>      -0.33333333       0.00000000       0.11363913 </v>
   <v>      -0.44444444      -0.22222222       0.00000000 </v>
   <v>      -0.11111111       0.44444444       0.00000000 </v>
   <v>       0.44384117       0.22192104       0.22738116 </v>
   <v>       0.11088461       0.22194314       0.22746181 </v>
   <v>       0.11144258      -0.10995309       0.22801611 </v>
   <v>       0.44384293      -0.44507080       0.22735624 </v>
   <v>       0.44387957      -0.11153824       0.22748625 </v>
   <v>      -0.22253900      -0.11154774       0.22751736 </v>
   <v>      -0.22392668      -0.44545803       0.22790219 </v>
   <v>      -0.22254150       0.22203923       0.22753559 </v>
   <v>       0.11140374      -0.44555761       0.22799401 </v>
   <v>       0.22294810       0.11338387       0.34293940 </v>
   <v>       0.22129304      -0.22281062       0.34088953 </v>
   <v>      -0.44514314       0.11044160       0.34099129 </v>
   <v>      -0.11142073      -0.22268877       0.34092848 </v>
   <v>      -0.11201396       0.11043881       0.34105174 </v>
   <v>      -0.44728991       0.44282813       0.34257699 </v>
   <v>       0.22285726       0.44259210       0.34284637 </v>
   <v>       0.34253464       0.34145056      -0.39567008 </v>
   <v>      -0.44512118      -0.22264749       0.34094897 </v>
   <v>      -0.11149376       0.44422028       0.34094309 </v>
   <v>       0.33819367       0.33746033      -0.44940552 </v>
   <v>       0.33345554       0.33337522       0.45631330 </v>
   <v>       0.33314649      -0.00222798       0.45622792 </v>
   <v>      -0.00270722      -0.00185610       0.45632683 </v>
   <v>      -0.33201306       0.33218375       0.45601198 </v>
   <v>      -0.00283303       0.33214732       0.45625011 </v>
   <v>      -0.00056784      -0.33374617       0.45709520 </v>
   <v>      -0.33187686      -0.33103705       0.45594846 </v>
   <v>       0.33316209      -0.33134591       0.45608667 </v>
   <v>      -0.33396764      -0.00044676       0.45755097 </v>
  </varray>
 </structure>
 <varray name="primitive_index" >
  <v type="int" >        1 </v>
  <v type="int" >       14 </v>
  <v type="int" >       10 </v>
  <v type="int" >       13 </v>
  <v type="int" >        2 </v>
  <v type="int" >        5 </v>
  <v type="int" >        9 </v>
  <v type="int" >        3 </v>
  <v type="int" >        7 </v>
  <v type="int" >        4 </v>
  <v type="int" >       12 </v>
  <v type="int" >       11 </v>
  <v type="int" >       17 </v>
  <v type="int" >       15 </v>
  <v type="int" >       18 </v>
  <v type="int" >       16 </v>
  <v type="int" >        6 </v>
  <v type="int" >        8 </v>
  <v type="int" >       24 </v>
  <v type="int" >       21 </v>
  <v type="int" >       38 </v>
  <v type="int" >       32 </v>
  <v type="int" >       41 </v>
  <v type="int" >       44 </v>
  <v type="int" >       35 </v>
  <v type="int" >       27 </v>
  <v type="int" >       30 </v>
  <v type="int" >       20 </v>
  <v type="int" >       37 </v>
  <v type="int" >       23 </v>
  <v type="int" >       43 </v>
  <v type="int" >       26 </v>
  <v type="int" >       31 </v>
  <v type="int" >       29 </v>
  <v type="int" >       47 </v>
  <v type="int" >       40 </v>
  <v type="int" >       34 </v>
  <v type="int" >       46 </v>
  <v type="int" >       45 </v>
  <v type="int" >       22 </v>
  <v type="int" >       19 </v>
  <v type="int" >       33 </v>
  <v type="int" >       28 </v>
  <v type="int" >       36 </v>
  <v type="int" >       42 </v>
  <v type="int" >       39 </v>
  <v type="int" >       25 </v>
 </varray>
 <kpoints>
  <generation param="Monkhorst-Pack">
   <v type="int" name="divisions">       3        3        1 </v>
   <v name="usershift">      0.00000000       0.00000000       0.00000000 </v>
   <v name="genvec1">      0.33333333       0.00000000       0.00000000 </v>
   <v name="genvec2">      0.00000000       0.33333333       0.00000000 </v>
   <v name="genvec3">      0.00000000       0.00000000       1.00000000 </v>
   <v name="shift">      0.00000000       0.00000000       0.00000000 </v>
  </generation>
  <varray name="kpointlist" >
   <v>       0.00000000       0.00000000       0.00000000 </v>
   <v>       0.33333333       0.00000000       0.00000000 </v>
   <v>       0.00000000       0.33333333       0.00000000 </v>
   <v>       0.33333333       0.33333333       0.00000000 </v>
   <v>      -0.33333333       0.33333333       0.00000000 </v>
  </varray>
  <varray name="weights" >
   <v>       0.11111111 </v>
   <v>       0.22222222 </v>
   <v>       0.22222222 </v>
   <v>       0.22222222 </v>
   <v>       0.22222222 </v>
  </varray>
 </kpoints>
 <parameters>
  <separator name="general" >
   <i type="string" name="SYSTEM">unknown system</i>
   <i type="logical" name="LCOMPAT"> F  </i>
  </separator>
  <separator name="electronic" >
   <i type="string" name="PREC">accura</i>
   <i name="ENMAX">    400.00000000</i>
   <i name="ENAUG">    627.11200000</i>
   <i name="EDIFF">      0.00000100</i>
   <i type="int" name="IALGO">    68</i>
   <i type="int" name="IWAVPR">    11</i>
   <i type="int" name="NBANDS">   328</i>
   <i name="NELECT">    504.00000000</i>
   <i type="int" name="TURBO">     0</i>
   <i type="int" name="IRESTART">     0</i>
   <i type="int" name="NREBOOT">     0</i>
   <i type="int" name="NMIN">     0</i>
   <i name="EREF">      0.00000000</i>
   <separator name="electronic smearing" >
    <i type="int" name="ISMEAR">     1</i>
    <i name="SIGMA">      0.10000000</i>
    <i name="KSPACING">      0.50000000</i>
    <i type="logical" name="KGAMMA"> T  </i>
   </separator>
   <separator name="electronic projectors" >
    <i type="logical" name="LREAL"> T  </i>
    <v name="ROPT">     -0.00020000     -0.00020000     -0.00020000</v>
    <i type="int" name="LMAXPAW">  -100</i>
    <i type="int" name="LMAXMIX">     2</i>
    <i type="logical" name="NLSPLINE"> F  </i>
   </separator>
   <separator name="electronic startup" >
    <i type="int" name="ISTART">     0</i>
    <i type="int" name="ICHARG">     1</i>
    <i type="int" name="INIWAV">     1</i>
   </separator>
   <separator name="electronic spin" >
    <i type="int" name="ISPIN">     2</i>
    <i type="logical" name="LNONCOLLINEAR"> F  </i>
    <v name="MAGMOM">      1.00000000      1.00000000      1.00000000      1.00000000      1.00000000      1.00000000      1.00000000      1.00000000      1.00000000      1.00000000      1.00000000      1.00000000      1.00000000      1.00000000      1.00000000      1.00000000      1.00000000      1.00000000      1.00000000      1.00000000
      1.00000000      1.00000000      1.00000000      1.00000000      1.00000000      1.00000000      1.00000000      1.00000000      1.00000000      1.00000000      1.00000000      1.00000000      1.00000000      1.00000000      1.00000000      1.00000000      1.00000000      1.00000000      1.00000000      1.00000000
      1.00000000      1.00000000      1.00000000      1.00000000      1.00000000      1.00000000      1.00000000</v>
    <i name="NUPDOWN">     -1.00000000</i>
    <i type="logical" name="LSORBIT"> F  </i>
    <v name="SAXIS">      0.00000000      0.00000000      1.00000000</v>
    <i type="logical" name="LSPIRAL"> F  </i>
    <v name="QSPIRAL">      0.00000000      0.00000000      0.00000000</v>
    <i type="logical" name="LZEROZ"> F  </i>
   </separator>
   <separator name="electronic exchange-correlation" >
    <i type="logical" name="LASPH"> F  </i>
    <i type="logical" name="LMETAGGA"> F  </i>
   </separator>
   <separator name="electronic convergence" >
    <i type="int" name="NELM">   100</i>
    <i type="int" name="NELMDL">   -10</i>
    <i type="int" name="NELMIN">     2</i>
    <i name="ENINI">    400.00000000</i>
    <separator name="electronic convergence detail" >
     <i type="logical" name="LDIAG"> T  </i>
     <i type="logical" name="LSUBROT"> F  </i>
     <i name="WEIMIN">      0.00100000</i>
     <i name="EBREAK">      0.00000000</i>
     <i name="DEPER">      0.30000000</i>
     <i type="int" name="NRMM">     4</i>
     <i name="TIME">      0.40000000</i>
    </separator>
   </separator>
   <separator name="electronic mixer" >
    <i name="AMIX">      0.40000000</i>
    <i name="BMIX">      1.00000000</i>
    <i name="AMIN">      0.10000000</i>
    <i name="AMIX_MAG">      1.60000000</i>
    <i name="BMIX_MAG">      1.00000000</i>
    <separator name="electronic mixer details" >
     <i type="int" name="IMIX">     4</i>
     <i type="logical" name="MIXFIRST"> F  </i>
     <i type="int" name="MAXMIX">   -45</i>
     <i name="WC">    100.00000000</i>
     <i type="int" name="INIMIX">     1</i>
     <i type="int" name="MIXPRE">     1</i>
     <i type="int" name="MREMOVE">     5</i>
    </separator>
   </separator>
   <separator name="electronic dipolcorrection" >
    <i type="logical" name="LDIPOL"> T  </i>
    <i type="logical" name="LMONO"> F  </i>
    <i type="int" name="IDIPOL">     3</i>
    <i name="EPSILON">      1.00000000</i>
    <v name="DIPOL">   -100.00000000   -100.00000000   -100.00000000</v>
    <i name="EFIELD">      0.00000000</i>
   </separator>
  </separator>
  <separator name="grids" >
   <i type="int" name="NGX">    60</i>
   <i type="int" name="NGY">    60</i>
   <i type="int" name="NGZ">   140</i>
   <i type="int" name="NGXF">   120</i>
   <i type="int" name="NGYF">   120</i>
   <i type="int" name="NGZF">   280</i>
   <i type="logical" name="ADDGRID"> F  </i>
  </separator>
  <separator name="ionic" >
   <i type="int" name="NSW">   700</i>
   <i type="int" name="IBRION">     2</i>
   <i type="int" name="MDALGO">     0</i>
   <i type="int" name="ISIF">     2</i>
   <i name="PSTRESS">      0.00000000</i>
   <i name="EDIFFG">     -0.02000000</i>
   <i type="int" name="NFREE">     1</i>
   <i name="POTIM">      0.50000000</i>
   <i name="SMASS">     -3.00000000</i>
   <i name="SCALEE">      1.00000000</i>
  </separator>
  <separator name="ionic md" >
   <i name="TEBEG">      0.00010000</i>
   <i name="TEEND">      0.00010000</i>
   <i type="int" name="NBLOCK">     1</i>
   <i type="int" name="KBLOCK">   700</i>
   <i type="int" name="NPACO">   256</i>
   <i name="APACO">     16.00000000</i>
  </separator>
  <separator name="symmetry" >
   <i type="int" name="ISYM">     2</i>
   <i name="SYMPREC">      0.00001000</i>
  </separator>
  <separator name="dos" >
   <i type="int" name="LORBIT">     0</i>
   <v name="RWIGS">     -1.00000000     -1.00000000     -1.00000000</v>
   <i type="int" name="NEDOS">   301</i>
   <i name="EMIN">     10.00000000</i>
   <i name="EMAX">    -10.00000000</i>
   <i name="EFERMI">      0.00000000</i>
  </separator>
  <separator name="writing" >
   <i type="int" name="NWRITE">     1</i>
   <i type="logical" name="LWAVE"> F  </i>
   <i type="logical" name="LDOWNSAMPLE"> F  </i>
   <i type="logical" name="LCHARG"> T  </i>
   <i type="logical" name="LPARD"> F  </i>
   <i type="logical" name="LVTOT"> F  </i>
   <i type="logical" name="LVHAR"> F  </i>
   <i type="logical" name="LELF"> F  </i>
   <i type="logical" name="LOPTICS"> F  </i>
   <v name="STM">      0.00000000      0.00000000      0.00000000      0.00000000      0.00000000      0.00000000      0.00000000</v>
  </separator>
  <separator name="performance" >
   <i type="int" name="NPAR">     8</i>
   <i type="int" name="NSIM">     4</i>
   <i type="int" name="NBLK">    -1</i>
   <i type="logical" name="LPLANE"> T  </i>
   <i type="logical" name="LSCALAPACK"> T  </i>
   <i type="logical" name="LSCAAWARE"> F  </i>
   <i type="logical" name="LSCALU"> F  </i>
   <i type="logical" name="LASYNC"> F  </i>
   <i type="logical" name="LORBITALREAL"> F  </i>
  </separator>
  <separator name="miscellaneous" >
   <i type="int" name="IDIOT">     3</i>
   <i type="int" name="ISPECIAL">     0</i>
   <i type="logical" name="LMUSIC"> F  </i>
   <v name="POMASS">    196.96600000    195.08000000     14.00100000</v>
   <v name="DARWINR">      0.00000000      0.00000000      0.00000000</v>
   <v name="DARWINV">      1.00000000      1.00000000      1.00000000</v>
   <i type="logical" name="LCORR"> T  </i>
  </separator>
  <i type="logical" name="GGA_COMPAT"> T  </i>
  <i type="logical" name="LBERRY"> F  </i>
  <i type="int" name="ICORELEVEL">     0</i>
  <i type="logical" name="LDAU"> F  </i>
  <i type="int" name="I_CONSTRAINED_M">     0</i>
  <separator name="electronic exchange-correlation" >
   <i type="string" name="GGA">MK</i>
   <i type="int" name="VOSKOWN">     1</i>
   <i type="logical" name="LHFCALC"> F  </i>
   <i type="string" name="PRECFOCK"></i>
   <i type="logical" name="LSYMGRAD"> F  </i>
   <i type="logical" name="LHFONE"> F  </i>
   <i type="logical" name="LRHFCALC"> F  </i>
   <i type="logical" name="LTHOMAS"> F  </i>
   <i type="logical" name="LMODELHF"> F  </i>
   <i name="ENCUT4O">     -1.00000000</i>
   <i type="int" name="EXXOEP">     0</i>
   <i type="int" name="FOURORBIT">     0</i>
   <i name="AEXX">      0.00000000</i>
   <i name="HFALPHA">      0.00000000</i>
   <i name="MCALPHA">      0.00000000</i>
   <i name="ALDAX">      1.00000000</i>
   <i name="AGGAX">      1.00000000</i>
   <i name="ALDAC">      1.00000000</i>
   <i name="AGGAC">      0.00000000</i>
   <i type="int" name="NKREDX">     1</i>
   <i type="int" name="NKREDY">     1</i>
   <i type="int" name="NKREDZ">     1</i>
   <i type="logical" name="SHIFTRED"> F  </i>
   <i type="logical" name="ODDONLY"> F  </i>
   <i type="logical" name="EVENONLY"> F  </i>
   <i type="int" name="LMAXFOCK">     0</i>
   <i type="int" name="NMAXFOCKAE">     0</i>
   <i type="logical" name="LFOCKAEDFT"> F  </i>
   <i name="HFSCREEN">      0.00000000</i>
   <i name="HFSCREENC">      0.00000000</i>
   <i type="int" name="NBANDSGWLOW">     0</i>
  </separator>
  <separator name="vdW DFT" >
   <i type="logical" name="LUSE_VDW"> T  </i>
   <i name="Zab_VDW">     -0.84910000</i>
   <i name="PARAM1">      0.12340000</i>
   <i name="PARAM2">      1.00000000</i>
   <i name="PARAM3">      0.00000000</i>
  </separator>
  <separator name="model GW" >
   <i type="int" name="MODEL_GW">     0</i>
   <i name="MODEL_EPS0">     17.76266995</i>
   <i name="MODEL_ALPHA">      1.00000000</i>
  </separator>
  <separator name="linear response parameters" >
   <i type="logical" name="LEPSILON"> F  </i>
   <i type="logical" name="LRPA"> F  </i>
   <i type="logical" name="LNABLA"> F  </i>
   <i type="logical" name="LVEL"> F  </i>
   <i type="int" name="KINTER">     0</i>
   <i name="CSHIFT">      0.10000000</i>
   <i name="OMEGAMAX">     -1.00000000</i>
   <i name="DEG_THRESHOLD">      0.00200000</i>
   <i name="RTIME">     -0.10000000</i>
   <i name="WPLASMAI">      0.00000000</i>
   <v name="DFIELD">      0.00000000      0.00000000      0.00000000</v>
   <v name="WPLASMA">      0.00000000      0.00000000      0.00000000      0.00000000      0.00000000      0.00000000      0.00000000      0.00000000      0.00000000</v>
  </separator>
  <separator name="orbital magnetization" >
   <i type="logical" name="NUCIND"> F  </i>
   <v name="MAGPOS">      0.00000000      0.00000000      0.00000000</v>
   <i type="logical" name="LNICSALL"> T  </i>
   <i type="logical" name="ORBITALMAG"> F  </i>
   <i type="logical" name="LMAGBLOCH"> F  </i>
   <i type="logical" name="LCHIMAG"> F  </i>
   <i type="logical" name="LGAUGE"> T  </i>
   <i type="int" name="MAGATOM">     0</i>
   <v name="MAGDIPOL">      0.00000000      0.00000000      0.00000000</v>
   <v name="AVECCONST">      0.00000000      0.00000000      0.00000000</v>
  </separator>
  <separator name="response functions" >
   <i type="logical" name="LADDER"> F  </i>
   <i type="logical" name="LRPAFORCE"> F  </i>
   <i type="logical" name="LFXC"> F  </i>
   <i type="logical" name="LHARTREE"> T  </i>
   <i type="int" name="IBSE">     0</i>
   <v type="int" name="KPOINT">    -1     0     0     0</v>
   <i type="logical" name="LTCTE"> F  </i>
   <i type="logical" name="LTETE"> F  </i>
   <i type="logical" name="LTRIPLET"> F  </i>
   <i type="logical" name="LFXCEPS"> F  </i>
   <i type="logical" name="LFXHEG"> F  </i>
   <i type="int" name="NATURALO">     2</i>
   <i type="logical" name="L2ORDER"> F  </i>
   <i type="logical" name="LMP2LT"> F  </i>
   <i type="logical" name="LUSEW"> F  </i>
   <i name="ENCUTGW">     -2.00000000</i>
   <i name="ENCUTGWSOFT">     -2.00000000</i>
   <i name="ENCUTLF">     -1.00000000</i>
   <i type="int" name="LMAXMP2">    -1</i>
   <i name="SCISSOR">      0.00000000</i>
   <i type="int" name="NOMEGA">     0</i>
   <i type="int" name="NOMEGAR">     0</i>
   <i type="int" name="NBANDSGW">    -1</i>
   <i type="int" name="NBANDSO">    -1</i>
   <i type="int" name="NBANDSV">    -1</i>
   <i type="int" name="NELM">   100</i>
   <i type="int" name="NELMHF">     1</i>
   <i type="int" name="DIM">     3</i>
   <i type="int" name="ANTIRES">     0</i>
   <i name="OMEGAMAX">    -30.00000000</i>
   <i name="OMEGAMIN">    -30.00000000</i>
   <i name="OMEGATL">   -200.00000000</i>
   <i type="int" name="OMEGAGRID">   140</i>
   <i name="CSHIFT">     -0.10000000</i>
   <i type="logical" name="SELFENERGY"> F  </i>
   <i type="logical" name="LSPECTRAL"> F  </i>
   <i type="logical" name="LSPECTRALGW"> F  </i>
   <i type="logical" name="LSINGLES"> F  </i>
   <i type="logical" name="LFERMIGW"> F  </i>
   <i type="logical" name="ODDONLYGW"> F  </i>
   <i type="logical" name="EVENONLYGW"> F  </i>
   <i type="int" name="NKREDLFX">     1</i>
   <i type="int" name="NKREDLFY">     1</i>
   <i type="int" name="NKREDLFZ">     1</i>
   <i type="int" name="MAXMEM">  2800</i>
   <i type="int" name="TELESCOPE">     0</i>
   <i type="int" name="TAUPAR">     1</i>
   <i type="int" name="OMEGAPAR">    -1</i>
   <i name="LAMBDA">      1.00000000</i>
  </separator>
  <separator name="External order field" >
   <i name="OFIELD_KAPPA">      0.00000000</i>
   <v name="OFIELD_K">      0.00000000      0.00000000      0.00000000</v>
   <i name="OFIELD_Q6_NEAR">      0.00000000</i>
   <i name="OFIELD_Q6_FAR">      0.00000000</i>
   <i name="OFIELD_A">      0.00000000</i>
  </separator>
 </parameters>
 <atominfo>
  <atoms>      47 </atoms>
  <types>       3 </types>
  <array name="atoms" >
   <dimension dim="1">ion</dimension>
   <field type="string">element</field>
   <field type="int">atomtype</field>
   <set>
    <rc><c>Au</c><c>   1</c></rc>
    <rc><c>Au</c><c>   1</c></rc>
    <rc><c>Au</c><c>   1</c></rc>
    <rc><c>Au</c><c>   1</c></rc>
    <rc><c>Au</c><c>   1</c></rc>
    <rc><c>Au</c><c>   1</c></rc>
    <rc><c>Au</c><c>   1</c></rc>
    <rc><c>Au</c><c>   1</c></rc>
    <rc><c>Au</c><c>   1</c></rc>
    <rc><c>Au</c><c>   1</c></rc>
    <rc><c>Au</c><c>   1</c></rc>
    <rc><c>Au</c><c>   1</c></rc>
    <rc><c>Au</c><c>   1</c></rc>
    <rc><c>Au</c><c>   1</c></rc>
    <rc><c>Au</c><c>   1</c></rc>
    <rc><c>Au</c><c>   1</c></rc>
    <rc><c>Au</c><c>   1</c></rc>
    <rc><c>Au</c><c>   1</c></rc>
    <rc><c>Au</c><c>   1</c></rc>
    <rc><c>Au</c><c>   1</c></rc>
    <rc><c>Au</c><c>   1</c></rc>
    <rc><c>Au</c><c>   1</c></rc>
    <rc><c>Au</c><c>   1</c></rc>
    <rc><c>Au</c><c>   1</c></rc>
    <rc><c>Au</c><c>   1</c></rc>
    <rc><c>Au</c><c>   1</c></rc>
    <rc><c>Au</c><c>   1</c></rc>
    <rc><c>Au</c><c>   1</c></rc>
    <rc><c>Au</c><c>   1</c></rc>
    <rc><c>Au</c><c>   1</c></rc>
    <rc><c>Au</c><c>   1</c></rc>
    <rc><c>Au</c><c>   1</c></rc>
    <rc><c>Au</c><c>   1</c></rc>
    <rc><c>Au</c><c>   1</c></rc>
    <rc><c>Au</c><c>   1</c></rc>
    <rc><c>Au</c><c>   1</c></rc>
    <rc><c>Au</c><c>   1</c></rc>
    <rc><c>Au</c><c>   1</c></rc>
    <rc><c>Au</c><c>   1</c></rc>
    <rc><c>Au</c><c>   1</c></rc>
    <rc><c>Au</c><c>   1</c></rc>
    <rc><c>Au</c><c>   1</c></rc>
    <rc><c>Au</c><c>   1</c></rc>
    <rc><c>Au</c><c>   1</c></rc>
    <rc><c>Pt</c><c>   2</c></rc>
    <rc><c>N </c><c>   3</c></rc>
    <rc><c>N </c><c>   3</c></rc>
   </set>
  </array>
  <array name="atomtypes" >
   <dimension dim="1">type</dimension>
   <field type="int">atomspertype</field>
   <field type="string">element</field>
   <field>mass</field>
   <field>valence</field>
   <field type="string">pseudopotential</field>
   <set>
    <rc><c>  44</c><c>Au</c><c>    196.96600000</c><c>     11.00000000</c><c> PAW_PBE Au 06Sep2000                   </c></rc>
    <rc><c>   1</c><c>Pt</c><c>    195.08000000</c><c>     10.00000000</c><c> PAW_PBE Pt 05Jan2001                   </c></rc>
    <rc><c>   2</c><c>N </c><c>     14.00100000</c><c>      5.00000000</c><c> PAW_PBE N 08Apr2002                    </c></rc>
   </set>
  </array>
 </atominfo>
 <structure name="initialpos" >
  <crystal>
   <varray name="basis" >
    <v>       8.75400000       0.00000000       0.00000000 </v>
    <v>      -4.37700000       7.58118638       0.00000000 </v>
    <v>       0.00000000       0.00000000      20.96578547 </v>
   </varray>
   <i name="volume">   1391.40914632 </i>
   <varray name="rec_basis" >
    <v>       0.11423349       0.06595274       0.00000000 </v>
    <v>       0.00000000       0.13190548       0.00000000 </v>
    <v>       0.00000000       0.00000000       0.04769676 </v>
   </varray>
  </crystal>
  <varray name="positions" >
   <v>       0.22222222       0.11111111       0.00000000 </v>
   <v>       0.22222222       0.44444444       0.00000000 </v>
   <v>       0.22222222       0.77777778       0.00000000 </v>
   <v>       0.55555556       0.11111111       0.00000000 </v>
   <v>       0.55555556       0.44444444       0.00000000 </v>
   <v>       0.55555556       0.77777778       0.00000000 </v>
   <v>       0.88888889       0.11111111       0.00000000 </v>
   <v>       0.88888889       0.44444444       0.00000000 </v>
   <v>       0.88888889       0.77777778       0.00000000 </v>
   <v>       0.00000000       0.00000000       0.11363913 </v>
   <v>       0.00000000       0.33333333       0.11363913 </v>
   <v>       0.00000000       0.66666667       0.11363913 </v>
   <v>       0.33333333       0.00000000       0.11363913 </v>
   <v>       0.33333333       0.33333333       0.11363913 </v>
   <v>       0.33333333       0.66666667       0.11363913 </v>
   <v>       0.66666667       0.00000000       0.11363913 </v>
   <v>       0.66666667       0.33333333       0.11363913 </v>
   <v>       0.66666667       0.66666667       0.11363913 </v>
   <v>       0.99729278       0.99814390       0.45632683 </v>
   <v>       0.22294810       0.11338387       0.34293940 </v>
   <v>       0.11088461       0.22194314       0.22746181 </v>
   <v>       0.33314649       0.99777202       0.45622792 </v>
   <v>       0.55485686       0.11044160       0.34099129 </v>
   <v>       0.44384117       0.22192104       0.22738116 </v>
   <v>       0.66603236       0.99955324       0.45755097 </v>
   <v>       0.88798604       0.11043881       0.34105174 </v>
   <v>       0.77745850       0.22203923       0.22753559 </v>
   <v>       0.99716697       0.33214732       0.45625011 </v>
   <v>       0.22285726       0.44259210       0.34284637 </v>
   <v>       0.11140374       0.55444239       0.22799401 </v>
   <v>       0.55271009       0.44282813       0.34257699 </v>
   <v>       0.44384293       0.55492920       0.22735624 </v>
   <v>       0.66798694       0.33218375       0.45601198 </v>
   <v>       0.88850624       0.44422028       0.34094309 </v>
   <v>       0.77607332       0.55454197       0.22790219 </v>
   <v>       0.99943216       0.66625383       0.45709520 </v>
   <v>       0.22129304       0.77718938       0.34088953 </v>
   <v>       0.11144258       0.89004691       0.22801611 </v>
   <v>       0.33316209       0.66865409       0.45608667 </v>
   <v>       0.55487882       0.77735251       0.34094897 </v>
   <v>       0.44387957       0.88846176       0.22748625 </v>
   <v>       0.66812314       0.66896295       0.45594846 </v>
   <v>       0.88857927       0.77731123       0.34092848 </v>
   <v>       0.77746100       0.88845226       0.22751736 </v>
   <v>       0.33345554       0.33337522       0.45631330 </v>
   <v>       0.33819367       0.33746033       0.55059448 </v>
   <v>       0.34253464       0.34145056       0.60432992 </v>
  </varray>
  <varray name="selective"  type="logical" >
   <v type="logical" >  F  F  F </v>
   <v type="logical" >  F  F  F </v>
   <v type="logical" >  F  F  F </v>
   <v type="logical" >  F  F  F </v>
   <v type="logical" >  F  F  F </v>
   <v type="logical" >  F  F  F </v>
   <v type="logical" >  F  F  F </v>
   <v type="logical" >  F  F  F </v>
   <v type="logical" >  F  F  F </v>
   <v type="logical" >  F  F  F </v>
   <v type="logical" >  F  F  F </v>
   <v type="logical" >  F  F  F </v>
   <v type="logical" >  F  F  F </v>
   <v type="logical" >  F  F  F </v>
   <v type="logical" >  F  F  F </v>
   <v type="logical" >  F  F  F </v>
   <v type="logical" >  F  F  F </v>
   <v type="logical" >  F  F  F </v>
   <v type="logical" >  T  T  T </v>
   <v type="logical" >  T  T  T </v>
   <v type="logical" >  T  T  T </v>
   <v type="logical" >  T  T  T </v>
   <v type="logical" >  T  T  T </v>
   <v type="logical" >  T  T  T </v>
   <v type="logical" >  T  T  T </v>
   <v type="logical" >  T  T  T </v>
   <v type="logical" >  T  T  T </v>
   <v type="logical" >  T  T  T </v>
   <v type="logical" >  T  T  T </v>
   <v type="logical" >  T  T  T </v>
   <v type="logical" >  T  T  T </v>
   <v type="logical" >  T  T  T </v>
   <v type="logical" >  T  T  T </v>
   <v type="logical" >  T  T  T </v>
   <v type="logical" >  T  T  T </v>
   <v type="logical" >  T  T  T </v>
   <v type="logical" >  T  T  T </v>
   <v type="logical" >  T  T  T </v>
   <v type="logical" >  T  T  T </v>
   <v type="logical" >  T  T  T </v>
   <v type="logical" >  T  T  T </v>
   <v type="logical" >  T  T  T </v>
   <v type="logical" >  T  T  T </v>
   <v type="logical" >  T  T  T </v>
   <v type="logical" >  T  T  T </v>
   <v type="logical" >  T  T  T </v>
   <v type="logical" >  T  T  T </v>
  </varray>
  <nose>
   <v>      -3.00000000       0.00000000       0.00010000       0.00010000 </v>
  </nose>
 </structure>
 <calculation>
  <scstep>
   <time name="dav">    9.32    9.38</time>
   <time name="total">   11.28   11.38</time>
   <dipole>
    <v name="dipole">      0.00000000       0.00000000      -0.03169251 </v>
    <i name="Tr[quadrupol]">  -6415.87529253 </i>
    <i name="Echarged">      0.00000000 </i>
    <i name="Edipol_quadrupol">      0.00000000 </i>
    <i name="Eion">      0.00000000 </i>
   </dipole>
   <energy>
    <i name="alphaZ">   2781.28123634 </i>
    <i name="ewald">  65353.07214700 </i>
    <i name="hartreedc">-110348.78158989 </i>
    <i name="XCdc">    686.01088529 </i>
    <i name="pawpsdc">  33897.42883780 </i>
    <i name="pawaedc"> -32926.02502724 </i>
    <i name="eentropy">     -0.01091198 </i>
    <i name="bandstr">   2838.81922449 </i>
    <i name="atom">  42107.00981973 </i>
    <i name="e_fr_energy">   4388.80462153 </i>
    <i name="e_wo_entrp">   4388.81553351 </i>
    <i name="e_0_energy">   4388.80825886 </i>
   </energy>
  </scstep>
  <scstep>
   <time name="dav">    9.34    9.37</time>
   <time name="total">    9.34    9.37</time>
   <dipole>
    <v name="dipole">      0.00000000       0.00000000      -0.03169251 </v>
    <i name="Tr[quadrupol]">  -6415.87529253 </i>
    <i name="Echarged">      0.00000000 </i>
    <i name="Edipol_quadrupol">      0.00000000 </i>
    <i name="Eion">      0.00000000 </i>
   </dipole>
   <energy>
    <i name="e_fr_energy">    175.70506926 </i>
    <i name="e_wo_entrp">    175.71380093 </i>
    <i name="e_0_energy">    175.70797982 </i>
   </energy>
  </scstep>
  <scstep>
   <time name="dav">    9.89    9.92</time>
   <time name="total">    9.90    9.93</time>
   <dipole>
    <v name="dipole">      0.00000000       0.00000000      -0.03169251 </v>
    <i name="Tr[quadrupol]">  -6415.87529253 </i>
    <i name="Echarged">      0.00000000 </i>
    <i name="Edipol_quadrupol">      0.00000000 </i>
    <i name="Eion">      0.00000000 </i>
   </dipole>
   <energy>
    <i name="e_fr_energy">    -71.20965871 </i>
    <i name="e_wo_entrp">    -71.19727169 </i>
    <i name="e_0_energy">    -71.20552970 </i>
   </energy>
  </scstep>
  <scstep>
   <time name="dav">    9.64    9.67</time>
   <time name="total">    9.64    9.67</time>
   <dipole>
    <v name="dipole">      0.00000000       0.00000000      -0.03169251 </v>
    <i name="Tr[quadrupol]">  -6415.87529253 </i>
    <i name="Echarged">      0.00000000 </i>
    <i name="Edipol_quadrupol">      0.00000000 </i>
    <i name="Eion">      0.00000000 </i>
   </dipole>
   <energy>
    <i name="e_fr_energy">    -75.96136330 </i>
    <i name="e_wo_entrp">    -75.94798961 </i>
    <i name="e_0_energy">    -75.95690540 </i>
   </energy>
  </scstep>
  <scstep>
   <time name="dav">   10.14   10.17</time>
   <time name="total">   10.14   10.17</time>
   <dipole>
    <v name="dipole">      0.00000000       0.00000000      -0.03169251 </v>
    <i name="Tr[quadrupol]">  -6415.87529253 </i>
    <i name="Echarged">      0.00000000 </i>
    <i name="Edipol_quadrupol">      0.00000000 </i>
    <i name="Eion">      0.00000000 </i>
   </dipole>
   <energy>
    <i name="e_fr_energy">    -76.07061724 </i>
    <i name="e_wo_entrp">    -76.05721784 </i>
    <i name="e_0_energy">    -76.06615077 </i>
   </energy>
  </scstep>
  <scstep>
   <time name="dav">    9.88    9.91</time>
   <time name="total">    9.89    9.92</time>
   <dipole>
    <v name="dipole">      0.00000000       0.00000000      -0.03169251 </v>
    <i name="Tr[quadrupol]">  -6415.87529253 </i>
    <i name="Echarged">      0.00000000 </i>
    <i name="Edipol_quadrupol">      0.00000000 </i>
    <i name="Eion">      0.00000000 </i>
   </dipole>
   <energy>
    <i name="e_fr_energy">    -76.07439516 </i>
    <i name="e_wo_entrp">    -76.06099262 </i>
    <i name="e_0_energy">    -76.06992765 </i>
   </energy>
  </scstep>
  <scstep>
   <time name="dav">   10.40   10.43</time>
   <time name="total">   10.40   10.43</time>
   <dipole>
    <v name="dipole">      0.00000000       0.00000000      -0.03169251 </v>
    <i name="Tr[quadrupol]">  -6415.87529253 </i>
    <i name="Echarged">      0.00000000 </i>
    <i name="Edipol_quadrupol">      0.00000000 </i>
    <i name="Eion">      0.00000000 </i>
   </dipole>
   <energy>
    <i name="e_fr_energy">    -76.07458144 </i>
    <i name="e_wo_entrp">    -76.06117871 </i>
    <i name="e_0_energy">    -76.07011387 </i>
   </energy>
  </scstep>
  <scstep>
   <time name="dav">    9.73    9.76</time>
   <time name="total">    9.74    9.76</time>
   <dipole>
    <v name="dipole">      0.00000000       0.00000000      -0.03169251 </v>
    <i name="Tr[quadrupol]">  -6415.87529253 </i>
    <i name="Echarged">      0.00000000 </i>
    <i name="Edipol_quadrupol">      0.00000000 </i>
    <i name="Eion">      0.00000000 </i>
   </dipole>
   <energy>
    <i name="e_fr_energy">    -76.07458889 </i>
    <i name="e_wo_entrp">    -76.06118615 </i>
    <i name="e_0_energy">    -76.07012131 </i>
   </energy>
  </scstep>
  <scstep>
   <time name="dav">    7.98    8.00</time>
   <time name="total">    7.98    8.00</time>
   <dipole>
    <v name="dipole">      0.00000000       0.00000000      -0.03169251 </v>
    <i name="Tr[quadrupol]">  -6415.87529253 </i>
    <i name="Echarged">      0.00000000 </i>
    <i name="Edipol_quadrupol">      0.00000000 </i>
    <i name="Eion">      0.00000000 </i>
   </dipole>
   <energy>
    <i name="e_fr_energy">    -76.07458931 </i>
    <i name="e_wo_entrp">    -76.06118657 </i>
    <i name="e_0_energy">    -76.07012173 </i>
   </energy>
  </scstep>
  <scstep>
   <time name="dav">    6.88    6.90</time>
   <time name="total">    7.14    7.16</time>
   <dipole>
    <v name="dipole">      0.00000000       0.00000000      -0.03169251 </v>
    <i name="Tr[quadrupol]">  -6415.87529253 </i>
    <i name="Echarged">      0.00000000 </i>
    <i name="Edipol_quadrupol">      0.00000000 </i>
    <i name="Eion">      0.00000000 </i>
   </dipole>
   <energy>
    <i name="e_fr_energy">    -76.07458934 </i>
    <i name="e_wo_entrp">    -76.06118660 </i>
    <i name="e_0_energy">    -76.07012176 </i>
   </energy>
  </scstep>
  <scstep>
   <time name="diag">    1.35    1.35</time>
   <time name="diis">    3.89    3.90</time>
   <time name="orth">    0.24    0.24</time>
   <time name="total">    7.42    7.45</time>
   <dipole>
    <v name="dipole">      0.00000000       0.00000000      -0.03393838 </v>
    <i name="Tr[quadrupol]">  -6415.78314227 </i>
    <i name="Echarged">      0.00000000 </i>
    <i name="Edipol_quadrupol">      0.00000000 </i>
    <i name="Eion">      0.00000000 </i>
   </dipole>
   <energy>
    <i name="e_fr_energy">    -71.86900414 </i>
    <i name="e_wo_entrp">    -71.87547123 </i>
    <i name="e_0_energy">    -71.87115984 </i>
   </energy>
  </scstep>
  <scstep>
   <time name="diag">    1.36    1.36</time>
   <time name="diis">    3.91    3.92</time>
   <time name="orth">    0.24    0.24</time>
   <time name="total">    7.50    7.53</time>
   <dipole>
    <v name="dipole">      0.00000000       0.00000000      -0.00422199 </v>
    <i name="Tr[quadrupol]">  -6415.51120152 </i>
    <i name="Echarged">      0.00000000 </i>
    <i name="Edipol_quadrupol">      0.00000000 </i>
    <i name="Eion">      0.00000000 </i>
   </dipole>
   <energy>
    <i name="e_fr_energy">    -75.13304894 </i>
    <i name="e_wo_entrp">    -75.13249509 </i>
    <i name="e_0_energy">    -75.13286432 </i>
   </energy>
  </scstep>
  <scstep>
   <time name="diag">    1.37    1.37</time>
   <time name="diis">    3.83    3.84</time>
   <time name="orth">    0.25    0.25</time>
   <time name="total">    7.40    7.42</time>
   <dipole>
    <v name="dipole">      0.00000000       0.00000000      -0.33283187 </v>
    <i name="Tr[quadrupol]">  -6415.80398481 </i>
    <i name="Echarged">      0.00000000 </i>
    <i name="Edipol_quadrupol">      0.00000000 </i>
    <i name="Eion">      0.00000000 </i>
   </dipole>
   <energy>
    <i name="e_fr_energy">    -80.02763217 </i>
    <i name="e_wo_entrp">    -80.00470441 </i>
    <i name="e_0_energy">    -80.01998958 </i>
   </energy>
  </scstep>
  <scstep>
   <time name="diag">    1.35    1.35</time>
   <time name="diis">    3.87    3.88</time>
   <time name="orth">    0.25    0.25</time>
   <time name="total">    7.41    7.43</time>
   <dipole>
    <v name="dipole">      0.00000000       0.00000000       0.59652185 </v>
    <i name="Tr[quadrupol]">  -6416.59713544 </i>
    <i name="Echarged">      0.00000000 </i>
    <i name="Edipol_quadrupol">      0.00000000 </i>
    <i name="Eion">      0.00000000 </i>
   </dipole>
   <energy>
    <i name="e_fr_energy">    -83.89379068 </i>
    <i name="e_wo_entrp">    -83.89070229 </i>
    <i name="e_0_energy">    -83.89276121 </i>
   </energy>
  </scstep>
  <scstep>
   <time name="diag">    1.40    1.40</time>
   <time name="diis">    3.94    3.95</time>
   <time name="orth">    0.24    0.25</time>
   <time name="total">    7.68    7.70</time>
   <dipole>
    <v name="dipole">      0.00000000       0.00000000      -0.13445218 </v>
    <i name="Tr[quadrupol]">  -6416.00374620 </i>
    <i name="Echarged">      0.00000000 </i>
    <i name="Edipol_quadrupol">      0.00000000 </i>
    <i name="Eion">      0.00000000 </i>
   </dipole>
   <energy>
    <i name="e_fr_energy">    -81.90068832 </i>
    <i name="e_wo_entrp">    -81.89514374 </i>
    <i name="e_0_energy">    -81.89884013 </i>
   </energy>
  </scstep>
  <scstep>
   <time name="diag">    1.36    1.36</time>
   <time name="diis">    3.86    3.87</time>
   <time name="orth">    0.24    0.24</time>
   <time name="total">    7.39    7.42</time>
   <dipole>
    <v name="dipole">      0.00000000       0.00000000      -0.02998472 </v>
    <i name="Tr[quadrupol]">  -6415.47426909 </i>
    <i name="Echarged">      0.00000000 </i>
    <i name="Edipol_quadrupol">      0.00000000 </i>
    <i name="Eion">      0.00000000 </i>
   </dipole>
   <energy>
    <i name="e_fr_energy">    -82.02597177 </i>
    <i name="e_wo_entrp">    -82.01472292 </i>
    <i name="e_0_energy">    -82.02222215 </i>
   </energy>
  </scstep>
  <scstep>
   <time name="diag">    1.34    1.34</time>
   <time name="diis">    3.89    3.90</time>
   <time name="orth">    0.25    0.25</time>
   <time name="total">    7.42    7.44</time>
   <dipole>
    <v name="dipole">      0.00000000       0.00000000      -0.04847393 </v>
    <i name="Tr[quadrupol]">  -6415.83485892 </i>
    <i name="Echarged">      0.00000000 </i>
    <i name="Edipol_quadrupol">      0.00000000 </i>
    <i name="Eion">      0.00000000 </i>
   </dipole>
   <energy>
    <i name="e_fr_energy">    -82.07233683 </i>
    <i name="e_wo_entrp">    -82.06193941 </i>
    <i name="e_0_energy">    -82.06887102 </i>
   </energy>
  </scstep>
  <scstep>
   <time name="diag">    1.38    1.38</time>
   <time name="diis">    3.87    3.88</time>
   <time name="orth">    0.24    0.24</time>
   <time name="total">    7.42    7.45</time>
   <dipole>
    <v name="dipole">      0.00000000       0.00000000      -0.02863368 </v>
    <i name="Tr[quadrupol]">  -6415.89692693 </i>
    <i name="Echarged">      0.00000000 </i>
    <i name="Edipol_quadrupol">      0.00000000 </i>
    <i name="Eion">      0.00000000 </i>
   </dipole>
   <energy>
    <i name="e_fr_energy">    -82.08295544 </i>
    <i name="e_wo_entrp">    -82.07247029 </i>
    <i name="e_0_energy">    -82.07946039 </i>
   </energy>
  </scstep>
  <scstep>
   <time name="diag">    1.34    1.35</time>
   <time name="diis">    3.94    3.95</time>
   <time name="orth">    0.24    0.24</time>
   <time name="total">    7.46    7.49</time>
   <dipole>
    <v name="dipole">      0.00000000       0.00000000      -0.03621243 </v>
    <i name="Tr[quadrupol]">  -6415.86352862 </i>
    <i name="Echarged">      0.00000000 </i>
    <i name="Edipol_quadrupol">      0.00000000 </i>
    <i name="Eion">      0.00000000 </i>
   </dipole>
   <energy>
    <i name="e_fr_energy">    -82.08751857 </i>
    <i name="e_wo_entrp">    -82.07695292 </i>
    <i name="e_0_energy">    -82.08399669 </i>
   </energy>
  </scstep>
  <scstep>
   <time name="diag">    1.40    1.40</time>
   <time name="diis">    4.05    4.06</time>
   <time name="orth">    0.25    0.25</time>
   <time name="total">    7.71    7.73</time>
   <dipole>
    <v name="dipole">      0.00000000       0.00000000      -0.03296709 </v>
    <i name="Tr[quadrupol]">  -6415.90856773 </i>
    <i name="Echarged">      0.00000000 </i>
    <i name="Edipol_quadrupol">      0.00000000 </i>
    <i name="Eion">      0.00000000 </i>
   </dipole>
   <energy>
    <i name="e_fr_energy">    -82.09121806 </i>
    <i name="e_wo_entrp">    -82.08066694 </i>
    <i name="e_0_energy">    -82.08770102 </i>
   </energy>
  </scstep>
  <scstep>
   <time name="diag">    1.34    1.34</time>
   <time name="diis">    3.86    3.87</time>
   <time name="orth">    0.25    0.25</time>
   <time name="total">    7.42    7.44</time>
   <dipole>
    <v name="dipole">      0.00000000       0.00000000      -0.03331189 </v>
    <i name="Tr[quadrupol]">  -6415.91704493 </i>
    <i name="Echarged">      0.00000000 </i>
    <i name="Edipol_quadrupol">      0.00000000 </i>
    <i name="Eion">      0.00000000 </i>
   </dipole>
   <energy>
    <i name="e_fr_energy">    -82.09249470 </i>
    <i name="e_wo_entrp">    -82.08192161 </i>
    <i name="e_0_energy">    -82.08897034 </i>
   </energy>
  </scstep>
  <scstep>
   <time name="diag">    1.36    1.36</time>
   <time name="diis">    3.91    3.92</time>
   <time name="orth">    0.24    0.24</time>
   <time name="total">    7.46    7.48</time>
   <dipole>
    <v name="dipole">      0.00000000       0.00000000      -0.03261044 </v>
    <i name="Tr[quadrupol]">  -6415.91648047 </i>
    <i name="Echarged">      0.00000000 </i>
    <i name="Edipol_quadrupol">      0.00000000 </i>
    <i name="Eion">      0.00000000 </i>
   </dipole>
   <energy>
    <i name="e_fr_energy">    -82.09307905 </i>
    <i name="e_wo_entrp">    -82.08247312 </i>
    <i name="e_0_energy">    -82.08954374 </i>
   </energy>
  </scstep>
  <scstep>
   <time name="diag">    1.37    1.38</time>
   <time name="diis">    3.88    3.89</time>
   <time name="orth">    0.24    0.24</time>
   <time name="total">    7.50    7.52</time>
   <dipole>
    <v name="dipole">      0.00000000       0.00000000      -0.03203521 </v>
    <i name="Tr[quadrupol]">  -6415.91845805 </i>
    <i name="Echarged">      0.00000000 </i>
    <i name="Edipol_quadrupol">      0.00000000 </i>
    <i name="Eion">      0.00000000 </i>
   </dipole>
   <energy>
    <i name="e_fr_energy">    -82.09247983 </i>
    <i name="e_wo_entrp">    -82.08186946 </i>
    <i name="e_0_energy">    -82.08894304 </i>
   </energy>
  </scstep>
  <scstep>
   <time name="diag">    1.35    1.35</time>
   <time name="diis">    3.87    3.88</time>
   <time name="orth">    0.24    0.24</time>
   <time name="total">    7.51    7.53</time>
   <dipole>
    <v name="dipole">      0.00000000       0.00000000      -0.03184670 </v>
    <i name="Tr[quadrupol]">  -6415.90854153 </i>
    <i name="Echarged">      0.00000000 </i>
    <i name="Edipol_quadrupol">      0.00000000 </i>
    <i name="Eion">      0.00000000 </i>
   </dipole>
   <energy>
    <i name="e_fr_energy">    -82.09153292 </i>
    <i name="e_wo_entrp">    -82.08092213 </i>
    <i name="e_0_energy">    -82.08799599 </i>
   </energy>
  </scstep>
  <scstep>
   <time name="diag">    1.34    1.34</time>
   <time name="diis">    3.62    3.63</time>
   <time name="orth">    0.24    0.25</time>
   <time name="total">    7.15    7.18</time>
   <dipole>
    <v name="dipole">      0.00000000       0.00000000      -0.03203109 </v>
    <i name="Tr[quadrupol]">  -6415.90449500 </i>
    <i name="Echarged">      0.00000000 </i>
    <i name="Edipol_quadrupol">      0.00000000 </i>
    <i name="Eion">      0.00000000 </i>
   </dipole>
   <energy>
    <i name="e_fr_energy">    -82.09161079 </i>
    <i name="e_wo_entrp">    -82.08100969 </i>
    <i name="e_0_energy">    -82.08807709 </i>
   </energy>
  </scstep>
  <scstep>
   <time name="diag">    1.40    1.41</time>
   <time name="diis">    2.67    2.67</time>
   <time name="orth">    0.24    0.24</time>
   <time name="total">    6.33    6.35</time>
   <dipole>
    <v name="dipole">      0.00000000       0.00000000      -0.03220507 </v>
    <i name="Tr[quadrupol]">  -6415.89894379 </i>
    <i name="Echarged">      0.00000000 </i>
    <i name="Edipol_quadrupol">      0.00000000 </i>
    <i name="Eion">      0.00000000 </i>
   </dipole>
   <energy>
    <i name="e_fr_energy">    -82.09161331 </i>
    <i name="e_wo_entrp">    -82.08101236 </i>
    <i name="e_0_energy">    -82.08807966 </i>
   </energy>
  </scstep>
  <scstep>
   <time name="diag">    1.35    1.35</time>
   <time name="diis">    2.52    2.53</time>
   <time name="orth">    0.24    0.24</time>
   <time name="total">    5.79    5.81</time>
   <dipole>
    <v name="dipole">      0.00000000       0.00000000      -0.03233037 </v>
    <i name="Tr[quadrupol]">  -6415.89469677 </i>
    <i name="Echarged">      0.00000000 </i>
    <i name="Edipol_quadrupol">      0.00000000 </i>
    <i name="Eion">      0.00000000 </i>
   </dipole>
   <energy>
    <i name="alphaZ">   2781.27063316 </i>
    <i name="ewald">  65353.07214700 </i>
    <i name="hartreedc">-110349.02598589 </i>
    <i name="XCdc">    682.02968617 </i>
    <i name="pawpsdc">  33900.92422569 </i>
    <i name="pawaedc"> -32929.19988104 </i>
    <i name="eentropy">     -0.01060178 </i>
    <i name="bandstr">  -1628.16165565 </i>
    <i name="atom">  42107.00981973 </i>
    <i name="e_fr_energy">    -82.09161261 </i>
    <i name="e_wo_entrp">    -82.08101083 </i>
    <i name="e_0_energy">    -82.08807868 </i>
   </energy>
  </scstep>
  <structure>
   <crystal>
    <varray name="basis" >
     <v>       8.75400000       0.00000000       0.00000000 </v>
     <v>      -4.37700000       7.58118638       0.00000000 </v>
     <v>       0.00000000       0.00000000      20.96578547 </v>
    </varray>
    <i name="volume">   1391.40914632 </i>
    <varray name="rec_basis" >
     <v>       0.11423349       0.06595274       0.00000000 </v>
     <v>       0.00000000       0.13190548       0.00000000 </v>
     <v>       0.00000000       0.00000000       0.04769676 </v>
    </varray>
   </crystal>
   <varray name="positions" >
    <v>       0.22222222       0.11111111       0.00000000 </v>
    <v>       0.22222222       0.44444444       0.00000000 </v>
    <v>       0.22222222       0.77777778       0.00000000 </v>
    <v>       0.55555556       0.11111111       0.00000000 </v>
    <v>       0.55555556       0.44444444       0.00000000 </v>
    <v>       0.55555556       0.77777778       0.00000000 </v>
    <v>       0.88888889       0.11111111       0.00000000 </v>
    <v>       0.88888889       0.44444444       0.00000000 </v>
    <v>       0.88888889       0.77777778       0.00000000 </v>
    <v>       0.00000000       0.00000000       0.11363913 </v>
    <v>       0.00000000       0.33333333       0.11363913 </v>
    <v>       0.00000000       0.66666667       0.11363913 </v>
    <v>       0.33333333       0.00000000       0.11363913 </v>
    <v>       0.33333333       0.33333333       0.11363913 </v>
    <v>       0.33333333       0.66666667       0.11363913 </v>
    <v>       0.66666667       0.00000000       0.11363913 </v>
    <v>       0.66666667       0.33333333       0.11363913 </v>
    <v>       0.66666667       0.66666667       0.11363913 </v>
    <v>       0.99729278       0.99814390       0.45632683 </v>
    <v>       0.22294810       0.11338387       0.34293940 </v>
    <v>       0.11088461       0.22194314       0.22746181 </v>
    <v>       0.33314649       0.99777202       0.45622792 </v>
    <v>       0.55485686       0.11044160       0.34099129 </v>
    <v>       0.44384117       0.22192104       0.22738116 </v>
    <v>       0.66603236       0.99955324       0.45755097 </v>
    <v>       0.88798604       0.11043881       0.34105174 </v>
    <v>       0.77745850       0.22203923       0.22753559 </v>
    <v>       0.99716697       0.33214732       0.45625011 </v>
    <v>       0.22285726       0.44259210       0.34284637 </v>
    <v>       0.11140374       0.55444239       0.22799401 </v>
    <v>       0.55271009       0.44282813       0.34257699 </v>
    <v>       0.44384293       0.55492920       0.22735624 </v>
    <v>       0.66798694       0.33218375       0.45601198 </v>
    <v>       0.88850624       0.44422028       0.34094309 </v>
    <v>       0.77607332       0.55454197       0.22790219 </v>
    <v>       0.99943216       0.66625383       0.45709520 </v>
    <v>       0.22129304       0.77718938       0.34088953 </v>
    <v>       0.11144258       0.89004691       0.22801611 </v>
    <v>       0.33316209       0.66865409       0.45608667 </v>
    <v>       0.55487882       0.77735251       0.34094897 </v>
    <v>       0.44387957       0.88846176       0.22748625 </v>
    <v>       0.66812314       0.66896295       0.45594846 </v>
    <v>       0.88857927       0.77731123       0.34092848 </v>
    <v>       0.77746100       0.88845226       0.22751736 </v>
    <v>       0.33345554       0.33337522       0.45631330 </v>
    <v>       0.33819367       0.33746033       0.55059448 </v>
    <v>       0.34253464       0.34145056       0.60432992 </v>
   </varray>
  </structure>
  <varray name="forces" >
   <v>       0.00087393       0.06736105      -0.12509008 </v>
   <v>       0.05904063      -0.03265147      -0.12534704 </v>
   <v>      -0.02020417      -0.01166056      -0.12869029 </v>
   <v>      -0.01156831       0.00751180      -0.11417895 </v>
   <v>      -0.05924828      -0.03377227      -0.12602897 </v>
   <v>       0.00057107      -0.01411934      -0.11466360 </v>
   <v>       0.01087685       0.00645608      -0.11314338 </v>
   <v>       0.00030873       0.02286169      -0.12839320 </v>
   <v>       0.01991147      -0.01114277      -0.12848092 </v>
   <v>       0.00275804      -0.01225979       0.11769745 </v>
   <v>      -0.00881663       0.00656059       0.11779410 </v>
   <v>       0.00126278       0.00067499       0.19126025 </v>
   <v>      -0.00557280      -0.01376784       0.11570903 </v>
   <v>      -0.00242898      -0.00266350       0.13039052 </v>
   <v>      -0.01398459       0.00126069       0.11525060 </v>
   <v>       0.00003386      -0.00013508       0.12825518 </v>
   <v>       0.00792741       0.00537569       0.11525525 </v>
   <v>       0.00980042       0.00274014       0.11464566 </v>
   <v>       0.00317697       0.00109802      -0.00041723 </v>
   <v>       0.00153132      -0.00086638      -0.01347436 </v>
   <v>      -0.00221183      -0.00045208      -0.00531343 </v>
   <v>       0.00150237       0.00280262       0.00113260 </v>
   <v>       0.00219836       0.00059800       0.00232696 </v>
   <v>       0.00387950       0.00028238      -0.00278113 </v>
   <v>       0.00069161       0.00075041       0.00303254 </v>
   <v>       0.00124648       0.00144635       0.00232553 </v>
   <v>       0.00018436       0.00176425       0.00129963 </v>
   <v>       0.00218256       0.00295639      -0.00032317 </v>
   <v>      -0.00013773       0.00278266      -0.01247761 </v>
   <v>      -0.00361971       0.00341186       0.00017402 </v>
   <v>       0.00029179       0.00095458      -0.00405098 </v>
   <v>       0.00156448       0.00436615      -0.00251116 </v>
   <v>       0.00139686       0.00139418       0.00015392 </v>
   <v>       0.00135126      -0.00043026       0.00475160 </v>
   <v>       0.00348647       0.00271511       0.00366317 </v>
   <v>       0.00015791       0.00043229      -0.00531716 </v>
   <v>       0.00239941       0.00207016       0.00693695 </v>
   <v>       0.00053984      -0.00388289      -0.00019581 </v>
   <v>       0.00281313       0.00062494       0.00159711 </v>
   <v>       0.00113647       0.00267523       0.00261349 </v>
   <v>      -0.00096808       0.00003540       0.00184716 </v>
   <v>       0.00133698       0.00095923       0.00030687 </v>
   <v>      -0.00015046       0.00238592       0.00489266 </v>
   <v>       0.00096251       0.00020673       0.00143962 </v>
   <v>      -0.00542716      -0.00346084      -0.01195461 </v>
   <v>      -0.00857441      -0.00772543      -0.00886150 </v>
   <v>      -0.00448266      -0.00852507      -0.01305728 </v>
  </varray>
  <varray name="stress" >
   <v>     -23.22639355      -0.00607444      -0.02629773 </v>
   <v>      -0.00607435     -23.22577487      -0.04215018 </v>
   <v>      -0.02629791      -0.04215018       0.29495906 </v>
  </varray>
  <energy>
   <i name="e_fr_energy">    -82.09161261 </i>
   <i name="e_wo_entrp">    -82.08807868 </i>
   <i name="e_0_energy">     -0.01060178 </i>
  </energy>
  <time name="totalsc">  236.68  237.72</time>
  <eigenvalues>
   <array>
    <dimension dim="1">band</dimension>
    <dimension dim="2">kpoint</dimension>
    <dimension dim="3">spin</dimension>
    <field>eigene</field>
    <field>occ</field>
    <set>
     <set comment="spin 1">
      <set comment="kpoint 1">
       <r>  -22.6723    1.0000 </r>
       <r>  -10.4215    1.0000 </r>
       <r>   -8.3881    1.0000 </r>
       <r>   -7.5220    1.0000 </r>
       <r>   -6.6131    1.0000 </r>
       <r>   -6.4418    1.0000 </r>
       <r>   -6.4414    1.0000 </r>
       <r>   -6.1751    1.0000 </r>
       <r>   -6.1720    1.0000 </r>
       <r>   -6.1706    1.0000 </r>
       <r>   -6.1622    1.0000 </r>
       <r>   -6.1608    1.0000 </r>
       <r>   -6.1600    1.0000 </r>
       <r>   -6.0875    1.0000 </r>
       <r>   -6.0190    1.0000 </r>
       <r>   -5.8222    1.0000 </r>
       <r>   -5.7369    1.0000 </r>
       <r>   -5.7294    1.0000 </r>
       <r>   -5.7292    1.0000 </r>
       <r>   -5.7276    1.0000 </r>
       <r>   -5.7263    1.0000 </r>
       <r>   -5.6767    1.0000 </r>
       <r>   -5.4848    1.0000 </r>
       <r>   -5.4846    1.0000 </r>
       <r>   -5.4769    1.0000 </r>
       <r>   -5.4745    1.0000 </r>
       <r>   -5.4745    1.0000 </r>
       <r>   -5.4456    1.0000 </r>
       <r>   -5.2313    1.0000 </r>
       <r>   -5.2310    1.0000 </r>
       <r>   -5.2190    1.0000 </r>
       <r>   -5.2187    1.0000 </r>
       <r>   -5.2180    1.0000 </r>
       <r>   -5.2009    1.0000 </r>
       <r>   -5.0197    1.0000 </r>
       <r>   -5.0116    1.0000 </r>
       <r>   -5.0112    1.0000 </r>
       <r>   -5.0038    1.0000 </r>
       <r>   -4.9956    1.0000 </r>
       <r>   -4.9955    1.0000 </r>
       <r>   -4.9415    1.0000 </r>
       <r>   -4.9408    1.0000 </r>
       <r>   -4.9315    1.0000 </r>
       <r>   -4.9258    1.0000 </r>
       <r>   -4.9160    1.0000 </r>
       <r>   -4.9156    1.0000 </r>
       <r>   -4.8915    1.0000 </r>
       <r>   -4.8904    1.0000 </r>
       <r>   -4.8898    1.0000 </r>
       <r>   -4.8568    1.0000 </r>
       <r>   -4.8562    1.0000 </r>
       <r>   -4.8355    1.0000 </r>
       <r>   -4.5971    1.0000 </r>
       <r>   -4.5922    1.0000 </r>
       <r>   -4.5919    1.0000 </r>
       <r>   -4.5917    1.0000 </r>
       <r>   -4.5734    1.0000 </r>
       <r>   -4.5731    1.0000 </r>
       <r>   -4.5129    1.0000 </r>
       <r>   -4.5017    1.0000 </r>
       <r>   -4.4928    1.0000 </r>
       <r>   -4.4926    1.0000 </r>
       <r>   -4.4214    1.0000 </r>
       <r>   -4.4209    1.0000 </r>
       <r>   -4.2227    1.0000 </r>
       <r>   -4.2225    1.0000 </r>
       <r>   -4.1448    1.0000 </r>
       <r>   -4.1446    1.0000 </r>
       <r>   -4.0810    1.0000 </r>
       <r>   -4.0471    1.0000 </r>
       <r>   -4.0091    1.0000 </r>
       <r>   -3.9986    1.0000 </r>
       <r>   -3.9979    1.0000 </r>
       <r>   -3.9889    1.0000 </r>
       <r>   -3.9811    1.0000 </r>
       <r>   -3.9805    1.0000 </r>
       <r>   -3.8377    1.0000 </r>
       <r>   -3.7816    1.0000 </r>
       <r>   -3.7724    1.0000 </r>
       <r>   -3.7721    1.0000 </r>
       <r>   -3.7720    1.0000 </r>
       <r>   -3.7613    1.0000 </r>
       <r>   -3.7599    1.0000 </r>
       <r>   -3.7154    1.0000 </r>
       <r>   -3.7153    1.0000 </r>
       <r>   -3.7111    1.0000 </r>
       <r>   -3.6491    1.0000 </r>
       <r>   -3.6489    1.0000 </r>
       <r>   -3.6313    1.0000 </r>
       <r>   -3.6305    1.0000 </r>
       <r>   -3.5516    1.0000 </r>
       <r>   -3.5510    1.0000 </r>
       <r>   -3.5461    1.0000 </r>
       <r>   -3.5430    1.0000 </r>
       <r>   -3.5396    1.0000 </r>
       <r>   -3.5343    1.0000 </r>
       <r>   -3.5323    1.0000 </r>
       <r>   -3.5247    1.0000 </r>
       <r>   -3.4988    1.0000 </r>
       <r>   -3.4983    1.0000 </r>
       <r>   -3.4778    1.0000 </r>
       <r>   -3.4777    1.0000 </r>
       <r>   -3.4212    1.0000 </r>
       <r>   -3.4115    1.0000 </r>
       <r>   -3.4113    1.0000 </r>
       <r>   -3.4088    1.0000 </r>
       <r>   -3.4068    1.0000 </r>
       <r>   -3.4007    1.0000 </r>
       <r>   -3.3323    1.0000 </r>
       <r>   -3.3087    1.0000 </r>
       <r>   -3.3016    1.0000 </r>
       <r>   -3.3012    1.0000 </r>
       <r>   -3.3005    1.0000 </r>
       <r>   -3.2919    1.0000 </r>
       <r>   -3.2912    1.0000 </r>
       <r>   -3.2566    1.0000 </r>
       <r>   -3.2543    1.0000 </r>
       <r>   -3.2408    1.0000 </r>
       <r>   -3.2134    1.0000 </r>
       <r>   -3.2118    1.0000 </r>
       <r>   -3.2058    1.0000 </r>
       <r>   -3.2056    1.0000 </r>
       <r>   -3.1090    1.0000 </r>
       <r>   -3.1063    1.0000 </r>
       <r>   -3.1060    1.0000 </r>
       <r>   -3.0063    1.0000 </r>
       <r>   -3.0063    1.0000 </r>
       <r>   -2.9996    1.0000 </r>
       <r>   -2.9967    1.0000 </r>
       <r>   -2.9093    1.0000 </r>
       <r>   -2.9078    1.0000 </r>
       <r>   -2.8933    1.0000 </r>
       <r>   -2.8848    1.0000 </r>
       <r>   -2.8838    1.0000 </r>
       <r>   -2.8814    1.0000 </r>
       <r>   -2.8688    1.0000 </r>
       <r>   -2.8685    1.0000 </r>
       <r>   -2.8411    1.0000 </r>
       <r>   -2.8407    1.0000 </r>
       <r>   -2.6400    1.0000 </r>
       <r>   -2.6359    1.0000 </r>
       <r>   -2.6347    1.0000 </r>
       <r>   -2.6074    1.0000 </r>
       <r>   -2.6054    1.0000 </r>
       <r>   -2.5976    1.0000 </r>
       <r>   -2.5128    1.0000 </r>
       <r>   -2.5123    1.0000 </r>
       <r>   -2.4937    1.0000 </r>
       <r>   -2.4873    1.0000 </r>
       <r>   -2.3308    1.0000 </r>
       <r>   -2.3252    1.0000 </r>
       <r>   -2.3250    1.0000 </r>
       <r>   -2.3148    1.0000 </r>
       <r>   -2.3130    1.0000 </r>
       <r>   -2.3123    1.0000 </r>
       <r>   -2.3055    1.0000 </r>
       <r>   -2.3041    1.0000 </r>
       <r>   -2.2626    1.0000 </r>
       <r>   -2.2542    1.0000 </r>
       <r>   -2.2539    1.0000 </r>
       <r>   -2.2092    1.0000 </r>
       <r>   -2.2065    1.0000 </r>
       <r>   -2.2063    1.0000 </r>
       <r>   -2.1965    1.0000 </r>
       <r>   -2.1964    1.0000 </r>
       <r>   -2.1874    1.0000 </r>
       <r>   -2.1518    1.0000 </r>
       <r>   -2.1503    1.0000 </r>
       <r>   -2.1407    1.0000 </r>
       <r>   -2.1398    1.0000 </r>
       <r>   -2.1079    1.0000 </r>
       <r>   -2.1057    1.0000 </r>
       <r>   -2.0899    1.0000 </r>
       <r>   -2.0728    1.0000 </r>
       <r>   -2.0711    1.0000 </r>
       <r>   -2.0585    1.0000 </r>
       <r>   -1.9633    1.0000 </r>
       <r>   -1.9455    1.0000 </r>
       <r>   -1.9452    1.0000 </r>
       <r>   -1.9437    1.0000 </r>
       <r>   -1.9196    1.0000 </r>
       <r>   -1.9194    1.0000 </r>
       <r>   -1.8197    1.0000 </r>
       <r>   -1.8165    1.0000 </r>
       <r>   -1.8030    1.0000 </r>
       <r>   -1.8017    1.0000 </r>
       <r>   -1.8008    1.0000 </r>
       <r>   -1.7828    1.0000 </r>
       <r>   -1.7823    1.0000 </r>
       <r>   -1.7812    1.0000 </r>
       <r>   -1.7780    1.0000 </r>
       <r>   -1.7777    1.0000 </r>
       <r>   -1.7670    1.0000 </r>
       <r>   -1.7636    1.0000 </r>
       <r>   -1.7631    1.0000 </r>
       <r>   -1.7370    1.0000 </r>
       <r>   -1.6852    1.0000 </r>
       <r>   -1.6803    1.0000 </r>
       <r>   -1.6796    1.0000 </r>
       <r>   -1.6757    1.0000 </r>
       <r>   -1.6756    1.0000 </r>
       <r>   -1.6198    1.0000 </r>
       <r>   -1.6138    1.0000 </r>
       <r>   -1.6135    1.0000 </r>
       <r>   -1.6057    1.0000 </r>
       <r>   -1.6031    1.0000 </r>
       <r>   -1.6018    1.0000 </r>
       <r>   -1.6011    1.0000 </r>
       <r>   -1.5044    1.0000 </r>
       <r>   -1.5042    1.0000 </r>
       <r>   -1.4984    1.0000 </r>
       <r>   -1.4632    1.0000 </r>
       <r>   -1.4616    1.0000 </r>
       <r>   -1.4615    1.0000 </r>
       <r>   -1.4561    1.0000 </r>
       <r>   -1.4536    1.0000 </r>
       <r>   -1.4535    1.0000 </r>
       <r>   -1.4124    1.0000 </r>
       <r>   -1.4095    1.0000 </r>
       <r>   -1.3991    1.0000 </r>
       <r>   -1.3981    1.0000 </r>
       <r>   -1.3913    1.0000 </r>
       <r>   -1.3908    1.0000 </r>
       <r>   -1.3730    1.0000 </r>
       <r>   -1.3726    1.0000 </r>
       <r>   -1.3627    1.0000 </r>
       <r>   -1.3282    1.0000 </r>
       <r>   -1.3275    1.0000 </r>
       <r>   -1.3160    1.0000 </r>
       <r>   -1.3135    1.0000 </r>
       <r>   -1.3040    1.0000 </r>
       <r>   -1.3032    1.0000 </r>
       <r>   -1.2883    1.0000 </r>
       <r>   -1.2577    1.0000 </r>
       <r>   -1.2566    1.0000 </r>
       <r>   -1.1575    1.0000 </r>
       <r>   -1.1567    1.0000 </r>
       <r>   -1.1183    1.0000 </r>
       <r>   -1.1161    1.0000 </r>
       <r>   -1.0922    1.0000 </r>
       <r>   -1.0810    1.0000 </r>
       <r>   -1.0727    1.0000 </r>
       <r>   -1.0312    1.0000 </r>
       <r>   -1.0288    1.0000 </r>
       <r>   -0.8418    1.0000 </r>
       <r>   -0.8399    1.0000 </r>
       <r>   -0.7503    1.0000 </r>
       <r>   -0.7467    1.0000 </r>
       <r>   -0.7453    1.0000 </r>
       <r>   -0.7014    1.0000 </r>
       <r>   -0.7008    1.0000 </r>
       <r>   -0.3844    1.0000 </r>
       <r>    0.1930    1.0000 </r>
       <r>    0.8609   -0.0350 </r>
       <r>    0.8640   -0.0344 </r>
       <r>    0.8652   -0.0341 </r>
       <r>    0.8679   -0.0334 </r>
       <r>    0.8926   -0.0231 </r>
       <r>    0.8938   -0.0226 </r>
       <r>    1.7627   -0.0000 </r>
       <r>    2.6935   -0.0000 </r>
       <r>    2.6938   -0.0000 </r>
       <r>    2.7217   -0.0000 </r>
       <r>    2.7406   -0.0000 </r>
       <r>    2.7412   -0.0000 </r>
       <r>    3.1079   -0.0000 </r>
       <r>    3.1088   -0.0000 </r>
       <r>    3.3534   -0.0000 </r>
       <r>    3.5081    0.0000 </r>
       <r>    3.5246    0.0000 </r>
       <r>    3.5251    0.0000 </r>
       <r>    3.5529    0.0000 </r>
       <r>    3.5814    0.0000 </r>
       <r>    3.5819    0.0000 </r>
       <r>    4.1064    0.0000 </r>
       <r>    4.1252    0.0000 </r>
       <r>    4.1257    0.0000 </r>
       <r>    4.3231    0.0000 </r>
       <r>    4.6032    0.0000 </r>
       <r>    5.3148    0.0000 </r>
       <r>    5.3165    0.0000 </r>
       <r>    5.3392    0.0000 </r>
       <r>    5.3411    0.0000 </r>
       <r>    5.3412    0.0000 </r>
       <r>    5.3811    0.0000 </r>
       <r>    5.3843    0.0000 </r>
       <r>    5.6242    0.0000 </r>
       <r>    5.6785    0.0000 </r>
       <r>    5.7354    0.0000 </r>
       <r>    5.8150    0.0000 </r>
       <r>    5.8164    0.0000 </r>
       <r>    5.8475    0.0000 </r>
       <r>    6.0958    0.0000 </r>
       <r>    6.6731    0.0000 </r>
       <r>    6.6762    0.0000 </r>
       <r>    6.7097    0.0000 </r>
       <r>    6.7121    0.0000 </r>
       <r>    6.7189    0.0000 </r>
       <r>    6.7574    0.0000 </r>
       <r>    6.7579    0.0000 </r>
       <r>    6.9932    0.0000 </r>
       <r>    7.2216    0.0000 </r>
       <r>    7.2355    0.0000 </r>
       <r>    7.2366    0.0000 </r>
       <r>    7.2493    0.0000 </r>
       <r>    7.2556    0.0000 </r>
       <r>    7.2559    0.0000 </r>
       <r>    7.2691    0.0000 </r>
       <r>    7.2896    0.0000 </r>
       <r>    7.2902    0.0000 </r>
       <r>    7.6359    0.0000 </r>
       <r>    7.7361    0.0000 </r>
       <r>    7.7363    0.0000 </r>
       <r>    7.7592    0.0000 </r>
       <r>    7.7851    0.0000 </r>
       <r>    7.7880    0.0000 </r>
       <r>    7.8841    0.0000 </r>
       <r>    7.8848    0.0000 </r>
       <r>    8.0728    0.0000 </r>
       <r>    8.2702    0.0000 </r>
       <r>    8.2739    0.0000 </r>
       <r>    8.3007    0.0000 </r>
       <r>    8.3079    0.0000 </r>
       <r>    8.3139    0.0000 </r>
       <r>    8.3460    0.0000 </r>
       <r>    8.4069    0.0000 </r>
       <r>    8.4124    0.0000 </r>
       <r>    8.4448    0.0000 </r>
      </set>
      <set comment="kpoint 2">
       <r>  -22.6722    1.0000 </r>
       <r>  -10.4203    1.0000 </r>
       <r>   -8.0258    1.0000 </r>
       <r>   -7.1727    1.0000 </r>
       <r>   -7.0710    1.0000 </r>
       <r>   -6.4533    1.0000 </r>
       <r>   -6.4420    1.0000 </r>
       <r>   -6.3224    1.0000 </r>
       <r>   -6.2974    1.0000 </r>
       <r>   -6.2971    1.0000 </r>
       <r>   -6.2642    1.0000 </r>
       <r>   -6.0015    1.0000 </r>
       <r>   -5.8297    1.0000 </r>
       <r>   -5.7883    1.0000 </r>
       <r>   -5.7849    1.0000 </r>
       <r>   -5.7788    1.0000 </r>
       <r>   -5.7742    1.0000 </r>
       <r>   -5.7397    1.0000 </r>
       <r>   -5.7033    1.0000 </r>
       <r>   -5.6635    1.0000 </r>
       <r>   -5.5399    1.0000 </r>
       <r>   -5.5152    1.0000 </r>
       <r>   -5.5125    1.0000 </r>
       <r>   -5.5037    1.0000 </r>
       <r>   -5.4751    1.0000 </r>
       <r>   -5.2696    1.0000 </r>
       <r>   -5.2693    1.0000 </r>
       <r>   -5.2642    1.0000 </r>
       <r>   -5.2629    1.0000 </r>
       <r>   -5.2520    1.0000 </r>
       <r>   -5.2496    1.0000 </r>
       <r>   -5.2382    1.0000 </r>
       <r>   -5.2305    1.0000 </r>
       <r>   -5.1962    1.0000 </r>
       <r>   -5.1952    1.0000 </r>
       <r>   -5.1813    1.0000 </r>
       <r>   -5.1518    1.0000 </r>
       <r>   -5.0228    1.0000 </r>
       <r>   -4.9876    1.0000 </r>
       <r>   -4.9677    1.0000 </r>
       <r>   -4.9552    1.0000 </r>
       <r>   -4.9337    1.0000 </r>
       <r>   -4.9291    1.0000 </r>
       <r>   -4.8731    1.0000 </r>
       <r>   -4.8717    1.0000 </r>
       <r>   -4.8331    1.0000 </r>
       <r>   -4.7781    1.0000 </r>
       <r>   -4.7763    1.0000 </r>
       <r>   -4.7699    1.0000 </r>
       <r>   -4.7655    1.0000 </r>
       <r>   -4.6988    1.0000 </r>
       <r>   -4.6936    1.0000 </r>
       <r>   -4.6898    1.0000 </r>
       <r>   -4.6878    1.0000 </r>
       <r>   -4.6176    1.0000 </r>
       <r>   -4.6062    1.0000 </r>
       <r>   -4.5864    1.0000 </r>
       <r>   -4.5715    1.0000 </r>
       <r>   -4.5501    1.0000 </r>
       <r>   -4.4811    1.0000 </r>
       <r>   -4.4766    1.0000 </r>
       <r>   -4.3339    1.0000 </r>
       <r>   -4.3285    1.0000 </r>
       <r>   -4.2906    1.0000 </r>
       <r>   -4.2885    1.0000 </r>
       <r>   -4.2281    1.0000 </r>
       <r>   -4.2273    1.0000 </r>
       <r>   -4.1883    1.0000 </r>
       <r>   -4.1491    1.0000 </r>
       <r>   -4.1458    1.0000 </r>
       <r>   -4.1244    1.0000 </r>
       <r>   -4.1186    1.0000 </r>
       <r>   -4.1120    1.0000 </r>
       <r>   -4.0874    1.0000 </r>
       <r>   -4.0552    1.0000 </r>
       <r>   -4.0542    1.0000 </r>
       <r>   -4.0370    1.0000 </r>
       <r>   -4.0251    1.0000 </r>
       <r>   -4.0163    1.0000 </r>
       <r>   -3.9660    1.0000 </r>
       <r>   -3.9513    1.0000 </r>
       <r>   -3.8695    1.0000 </r>
       <r>   -3.8603    1.0000 </r>
       <r>   -3.8548    1.0000 </r>
       <r>   -3.8434    1.0000 </r>
       <r>   -3.8375    1.0000 </r>
       <r>   -3.8290    1.0000 </r>
       <r>   -3.8124    1.0000 </r>
       <r>   -3.7885    1.0000 </r>
       <r>   -3.7361    1.0000 </r>
       <r>   -3.7127    1.0000 </r>
       <r>   -3.7025    1.0000 </r>
       <r>   -3.5947    1.0000 </r>
       <r>   -3.5842    1.0000 </r>
       <r>   -3.5660    1.0000 </r>
       <r>   -3.5480    1.0000 </r>
       <r>   -3.5281    1.0000 </r>
       <r>   -3.5228    1.0000 </r>
       <r>   -3.5024    1.0000 </r>
       <r>   -3.4958    1.0000 </r>
       <r>   -3.4884    1.0000 </r>
       <r>   -3.4710    1.0000 </r>
       <r>   -3.4636    1.0000 </r>
       <r>   -3.4604    1.0000 </r>
       <r>   -3.4587    1.0000 </r>
       <r>   -3.4451    1.0000 </r>
       <r>   -3.4363    1.0000 </r>
       <r>   -3.4236    1.0000 </r>
       <r>   -3.3979    1.0000 </r>
       <r>   -3.3963    1.0000 </r>
       <r>   -3.3832    1.0000 </r>
       <r>   -3.3804    1.0000 </r>
       <r>   -3.3676    1.0000 </r>
       <r>   -3.3099    1.0000 </r>
       <r>   -3.3071    1.0000 </r>
       <r>   -3.2869    1.0000 </r>
       <r>   -3.2863    1.0000 </r>
       <r>   -3.2751    1.0000 </r>
       <r>   -3.2705    1.0000 </r>
       <r>   -3.2699    1.0000 </r>
       <r>   -3.2359    1.0000 </r>
       <r>   -3.2233    1.0000 </r>
       <r>   -3.2086    1.0000 </r>
       <r>   -3.1637    1.0000 </r>
       <r>   -3.1598    1.0000 </r>
       <r>   -3.1247    1.0000 </r>
       <r>   -3.0840    1.0000 </r>
       <r>   -3.0795    1.0000 </r>
       <r>   -3.0525    1.0000 </r>
       <r>   -3.0444    1.0000 </r>
       <r>   -3.0129    1.0000 </r>
       <r>   -2.9855    1.0000 </r>
       <r>   -2.9666    1.0000 </r>
       <r>   -2.9423    1.0000 </r>
       <r>   -2.9294    1.0000 </r>
       <r>   -2.9141    1.0000 </r>
       <r>   -2.9094    1.0000 </r>
       <r>   -2.8682    1.0000 </r>
       <r>   -2.8285    1.0000 </r>
       <r>   -2.8205    1.0000 </r>
       <r>   -2.8031    1.0000 </r>
       <r>   -2.7875    1.0000 </r>
       <r>   -2.7864    1.0000 </r>
       <r>   -2.7763    1.0000 </r>
       <r>   -2.7639    1.0000 </r>
       <r>   -2.6873    1.0000 </r>
       <r>   -2.6822    1.0000 </r>
       <r>   -2.6730    1.0000 </r>
       <r>   -2.6520    1.0000 </r>
       <r>   -2.6374    1.0000 </r>
       <r>   -2.6372    1.0000 </r>
       <r>   -2.5953    1.0000 </r>
       <r>   -2.5871    1.0000 </r>
       <r>   -2.5406    1.0000 </r>
       <r>   -2.5272    1.0000 </r>
       <r>   -2.4893    1.0000 </r>
       <r>   -2.4804    1.0000 </r>
       <r>   -2.4605    1.0000 </r>
       <r>   -2.4367    1.0000 </r>
       <r>   -2.4304    1.0000 </r>
       <r>   -2.4082    1.0000 </r>
       <r>   -2.3851    1.0000 </r>
       <r>   -2.3838    1.0000 </r>
       <r>   -2.3702    1.0000 </r>
       <r>   -2.3500    1.0000 </r>
       <r>   -2.3234    1.0000 </r>
       <r>   -2.2934    1.0000 </r>
       <r>   -2.2633    1.0000 </r>
       <r>   -2.2111    1.0000 </r>
       <r>   -2.1898    1.0000 </r>
       <r>   -2.1706    1.0000 </r>
       <r>   -2.1325    1.0000 </r>
       <r>   -2.1194    1.0000 </r>
       <r>   -2.1116    1.0000 </r>
       <r>   -2.1114    1.0000 </r>
       <r>   -2.1003    1.0000 </r>
       <r>   -2.0922    1.0000 </r>
       <r>   -2.0609    1.0000 </r>
       <r>   -2.0504    1.0000 </r>
       <r>   -2.0369    1.0000 </r>
       <r>   -1.9938    1.0000 </r>
       <r>   -1.9791    1.0000 </r>
       <r>   -1.9530    1.0000 </r>
       <r>   -1.9255    1.0000 </r>
       <r>   -1.9235    1.0000 </r>
       <r>   -1.9142    1.0000 </r>
       <r>   -1.8351    1.0000 </r>
       <r>   -1.8206    1.0000 </r>
       <r>   -1.8144    1.0000 </r>
       <r>   -1.8024    1.0000 </r>
       <r>   -1.7852    1.0000 </r>
       <r>   -1.7638    1.0000 </r>
       <r>   -1.7440    1.0000 </r>
       <r>   -1.7357    1.0000 </r>
       <r>   -1.7054    1.0000 </r>
       <r>   -1.6985    1.0000 </r>
       <r>   -1.6846    1.0000 </r>
       <r>   -1.6633    1.0000 </r>
       <r>   -1.6505    1.0000 </r>
       <r>   -1.6256    1.0000 </r>
       <r>   -1.6142    1.0000 </r>
       <r>   -1.6065    1.0000 </r>
       <r>   -1.5807    1.0000 </r>
       <r>   -1.5713    1.0000 </r>
       <r>   -1.5451    1.0000 </r>
       <r>   -1.5000    1.0000 </r>
       <r>   -1.4449    1.0000 </r>
       <r>   -1.4343    1.0000 </r>
       <r>   -1.4142    1.0000 </r>
       <r>   -1.3994    1.0000 </r>
       <r>   -1.3927    1.0000 </r>
       <r>   -1.3831    1.0000 </r>
       <r>   -1.3709    1.0000 </r>
       <r>   -1.3526    1.0000 </r>
       <r>   -1.3398    1.0000 </r>
       <r>   -1.3212    1.0000 </r>
       <r>   -1.2803    1.0000 </r>
       <r>   -1.2600    1.0000 </r>
       <r>   -1.2467    1.0000 </r>
       <r>   -1.2434    1.0000 </r>
       <r>   -1.2346    1.0000 </r>
       <r>   -1.2299    1.0000 </r>
       <r>   -1.2198    1.0000 </r>
       <r>   -1.2119    1.0000 </r>
       <r>   -1.1602    1.0000 </r>
       <r>   -1.1541    1.0000 </r>
       <r>   -1.1417    1.0000 </r>
       <r>   -1.1370    1.0000 </r>
       <r>   -1.1173    1.0000 </r>
       <r>   -1.1021    1.0000 </r>
       <r>   -1.0883    1.0000 </r>
       <r>   -1.0526    1.0000 </r>
       <r>   -1.0188    1.0000 </r>
       <r>   -1.0103    1.0000 </r>
       <r>   -0.9950    1.0000 </r>
       <r>   -0.9873    1.0000 </r>
       <r>   -0.9541    1.0000 </r>
       <r>   -0.9053    1.0000 </r>
       <r>   -0.8166    1.0000 </r>
       <r>   -0.7964    1.0000 </r>
       <r>   -0.7822    1.0000 </r>
       <r>   -0.5701    1.0000 </r>
       <r>   -0.3976    1.0000 </r>
       <r>   -0.2544    1.0000 </r>
       <r>   -0.2444    1.0000 </r>
       <r>   -0.1243    1.0000 </r>
       <r>    0.0257    1.0000 </r>
       <r>    0.0823    1.0000 </r>
       <r>    0.0934    1.0000 </r>
       <r>    0.4690    1.0006 </r>
       <r>    0.5509    1.0137 </r>
       <r>    0.5570    1.0161 </r>
       <r>    0.7025    0.7437 </r>
       <r>    0.7404    0.4358 </r>
       <r>    0.9846   -0.0011 </r>
       <r>    1.1002   -0.0000 </r>
       <r>    1.5670   -0.0000 </r>
       <r>    1.5701   -0.0000 </r>
       <r>    1.6545   -0.0000 </r>
       <r>    1.9212   -0.0000 </r>
       <r>    2.1019   -0.0000 </r>
       <r>    2.1552   -0.0000 </r>
       <r>    2.1980   -0.0000 </r>
       <r>    2.2057   -0.0000 </r>
       <r>    2.3346   -0.0000 </r>
       <r>    2.3705   -0.0000 </r>
       <r>    2.7314   -0.0000 </r>
       <r>    2.9846   -0.0000 </r>
       <r>    3.0966   -0.0000 </r>
       <r>    3.3119   -0.0000 </r>
       <r>    3.3524   -0.0000 </r>
       <r>    3.5168    0.0000 </r>
       <r>    3.6759    0.0000 </r>
       <r>    3.8473    0.0000 </r>
       <r>    3.9516    0.0000 </r>
       <r>    3.9755    0.0000 </r>
       <r>    4.0446    0.0000 </r>
       <r>    4.2340    0.0000 </r>
       <r>    4.3908    0.0000 </r>
       <r>    4.4561    0.0000 </r>
       <r>    4.7165    0.0000 </r>
       <r>    4.8056    0.0000 </r>
       <r>    4.8109    0.0000 </r>
       <r>    4.8190    0.0000 </r>
       <r>    4.9138    0.0000 </r>
       <r>    5.0999    0.0000 </r>
       <r>    5.2554    0.0000 </r>
       <r>    5.2666    0.0000 </r>
       <r>    5.4090    0.0000 </r>
       <r>    5.5399    0.0000 </r>
       <r>    5.6734    0.0000 </r>
       <r>    5.7210    0.0000 </r>
       <r>    5.8651    0.0000 </r>
       <r>    5.8724    0.0000 </r>
       <r>    5.9087    0.0000 </r>
       <r>    5.9599    0.0000 </r>
       <r>    6.0243    0.0000 </r>
       <r>    6.1170    0.0000 </r>
       <r>    6.2326    0.0000 </r>
       <r>    6.3277    0.0000 </r>
       <r>    6.4882    0.0000 </r>
       <r>    6.5139    0.0000 </r>
       <r>    6.6101    0.0000 </r>
       <r>    6.7610    0.0000 </r>
       <r>    6.7743    0.0000 </r>
       <r>    6.8945    0.0000 </r>
       <r>    7.0864    0.0000 </r>
       <r>    7.5477    0.0000 </r>
       <r>    7.5842    0.0000 </r>
       <r>    7.5941    0.0000 </r>
       <r>    7.6193    0.0000 </r>
       <r>    7.6311    0.0000 </r>
       <r>    7.7198    0.0000 </r>
       <r>    7.7447    0.0000 </r>
       <r>    7.7540    0.0000 </r>
       <r>    7.7691    0.0000 </r>
       <r>    7.7796    0.0000 </r>
       <r>    7.9135    0.0000 </r>
       <r>    7.9144    0.0000 </r>
       <r>    8.3354    0.0000 </r>
       <r>    8.4698    0.0000 </r>
       <r>    8.4975    0.0000 </r>
       <r>    8.6935    0.0000 </r>
       <r>    8.7383    0.0000 </r>
       <r>    8.9797    0.0000 </r>
       <r>    9.0662    0.0000 </r>
       <r>    9.1687    0.0000 </r>
       <r>    9.2278    0.0000 </r>
      </set>
      <set comment="kpoint 3">
       <r>  -22.6722    1.0000 </r>
       <r>  -10.4202    1.0000 </r>
       <r>   -8.0257    1.0000 </r>
       <r>   -7.1727    1.0000 </r>
       <r>   -7.0705    1.0000 </r>
       <r>   -6.4534    1.0000 </r>
       <r>   -6.4419    1.0000 </r>
       <r>   -6.3227    1.0000 </r>
       <r>   -6.2983    1.0000 </r>
       <r>   -6.2974    1.0000 </r>
       <r>   -6.2640    1.0000 </r>
       <r>   -5.9999    1.0000 </r>
       <r>   -5.8300    1.0000 </r>
       <r>   -5.7894    1.0000 </r>
       <r>   -5.7856    1.0000 </r>
       <r>   -5.7789    1.0000 </r>
       <r>   -5.7741    1.0000 </r>
       <r>   -5.7393    1.0000 </r>
       <r>   -5.7032    1.0000 </r>
       <r>   -5.6628    1.0000 </r>
       <r>   -5.5393    1.0000 </r>
       <r>   -5.5150    1.0000 </r>
       <r>   -5.5114    1.0000 </r>
       <r>   -5.5034    1.0000 </r>
       <r>   -5.4754    1.0000 </r>
       <r>   -5.2698    1.0000 </r>
       <r>   -5.2691    1.0000 </r>
       <r>   -5.2645    1.0000 </r>
       <r>   -5.2633    1.0000 </r>
       <r>   -5.2528    1.0000 </r>
       <r>   -5.2492    1.0000 </r>
       <r>   -5.2387    1.0000 </r>
       <r>   -5.2303    1.0000 </r>
       <r>   -5.1963    1.0000 </r>
       <r>   -5.1948    1.0000 </r>
       <r>   -5.1816    1.0000 </r>
       <r>   -5.1518    1.0000 </r>
       <r>   -5.0228    1.0000 </r>
       <r>   -4.9878    1.0000 </r>
       <r>   -4.9675    1.0000 </r>
       <r>   -4.9545    1.0000 </r>
       <r>   -4.9340    1.0000 </r>
       <r>   -4.9291    1.0000 </r>
       <r>   -4.8733    1.0000 </r>
       <r>   -4.8711    1.0000 </r>
       <r>   -4.8329    1.0000 </r>
[...]
       <r>   -23.4489    -0.0000    -0.0000 </r>
       <r>   -23.3319    -0.0000    -0.0000 </r>
       <r>   -23.2149    -0.0000    -0.0000 </r>
       <r>   -23.0979    -0.0000    -0.0000 </r>
       <r>   -22.9808    -0.0005    -0.0001 </r>
       <r>   -22.8638    -0.0884    -0.0104 </r>
       <r>   -22.7468     0.3053     0.0253 </r>
       <r>   -22.6297     6.8435     0.8262 </r>
       <r>   -22.5127     1.6840     1.0233 </r>
       <r>   -22.3957    -0.1962     1.0003 </r>
       <r>   -22.2787    -0.0028     1.0000 </r>
       <r>   -22.1616    -0.0000     1.0000 </r>
       <r>   -22.0446    -0.0000     1.0000 </r>
       <r>   -21.9276     0.0000     1.0000 </r>
       <r>   -21.8105     0.0000     1.0000 </r>
       <r>   -21.6935     0.0000     1.0000 </r>
       <r>   -21.5765     0.0000     1.0000 </r>
       <r>   -21.4595     0.0000     1.0000 </r>
       <r>   -21.3424     0.0000     1.0000 </r>
       <r>   -21.2254     0.0000     1.0000 </r>
       <r>   -21.1084     0.0000     1.0000 </r>
       <r>   -20.9913     0.0000     1.0000 </r>
       <r>   -20.8743     0.0000     1.0000 </r>
       <r>   -20.7573     0.0000     1.0000 </r>
       <r>   -20.6403     0.0000     1.0000 </r>
       <r>   -20.5232     0.0000     1.0000 </r>
       <r>   -20.4062     0.0000     1.0000 </r>
       <r>   -20.2892     0.0000     1.0000 </r>
       <r>   -20.1721     0.0000     1.0000 </r>
       <r>   -20.0551     0.0000     1.0000 </r>
       <r>   -19.9381     0.0000     1.0000 </r>
       <r>   -19.8211     0.0000     1.0000 </r>
       <r>   -19.7040     0.0000     1.0000 </r>
       <r>   -19.5870     0.0000     1.0000 </r>
       <r>   -19.4700     0.0000     1.0000 </r>
       <r>   -19.3530     0.0000     1.0000 </r>
       <r>   -19.2359     0.0000     1.0000 </r>
       <r>   -19.1189     0.0000     1.0000 </r>
       <r>   -19.0019     0.0000     1.0000 </r>
       <r>   -18.8848     0.0000     1.0000 </r>
       <r>   -18.7678     0.0000     1.0000 </r>
       <r>   -18.6508     0.0000     1.0000 </r>
       <r>   -18.5338     0.0000     1.0000 </r>
       <r>   -18.4167     0.0000     1.0000 </r>
       <r>   -18.2997     0.0000     1.0000 </r>
       <r>   -18.1827     0.0000     1.0000 </r>
       <r>   -18.0656     0.0000     1.0000 </r>
       <r>   -17.9486     0.0000     1.0000 </r>
       <r>   -17.8316     0.0000     1.0000 </r>
       <r>   -17.7146     0.0000     1.0000 </r>
       <r>   -17.5975     0.0000     1.0000 </r>
       <r>   -17.4805     0.0000     1.0000 </r>
       <r>   -17.3635     0.0000     1.0000 </r>
       <r>   -17.2464     0.0000     1.0000 </r>
       <r>   -17.1294     0.0000     1.0000 </r>
       <r>   -17.0124     0.0000     1.0000 </r>
       <r>   -16.8954     0.0000     1.0000 </r>
       <r>   -16.7783     0.0000     1.0000 </r>
       <r>   -16.6613     0.0000     1.0000 </r>
       <r>   -16.5443     0.0000     1.0000 </r>
       <r>   -16.4272     0.0000     1.0000 </r>
       <r>   -16.3102     0.0000     1.0000 </r>
       <r>   -16.1932     0.0000     1.0000 </r>
       <r>   -16.0762     0.0000     1.0000 </r>
       <r>   -15.9591     0.0000     1.0000 </r>
       <r>   -15.8421     0.0000     1.0000 </r>
       <r>   -15.7251     0.0000     1.0000 </r>
       <r>   -15.6081     0.0000     1.0000 </r>
       <r>   -15.4910     0.0000     1.0000 </r>
       <r>   -15.3740     0.0000     1.0000 </r>
       <r>   -15.2570     0.0000     1.0000 </r>
       <r>   -15.1399     0.0000     1.0000 </r>
       <r>   -15.0229     0.0000     1.0000 </r>
       <r>   -14.9059     0.0000     1.0000 </r>
       <r>   -14.7889     0.0000     1.0000 </r>
       <r>   -14.6718     0.0000     1.0000 </r>
       <r>   -14.5548     0.0000     1.0000 </r>
       <r>   -14.4378     0.0000     1.0000 </r>
       <r>   -14.3207     0.0000     1.0000 </r>
       <r>   -14.2037     0.0000     1.0000 </r>
       <r>   -14.0867     0.0000     1.0000 </r>
       <r>   -13.9697     0.0000     1.0000 </r>
       <r>   -13.8526     0.0000     1.0000 </r>
       <r>   -13.7356     0.0000     1.0000 </r>
       <r>   -13.6186     0.0000     1.0000 </r>
       <r>   -13.5015     0.0000     1.0000 </r>
       <r>   -13.3845     0.0000     1.0000 </r>
       <r>   -13.2675     0.0000     1.0000 </r>
       <r>   -13.1505     0.0000     1.0000 </r>
       <r>   -13.0334     0.0000     1.0000 </r>
       <r>   -12.9164     0.0000     1.0000 </r>
       <r>   -12.7994     0.0000     1.0000 </r>
       <r>   -12.6823     0.0000     1.0000 </r>
       <r>   -12.5653     0.0000     1.0000 </r>
       <r>   -12.4483     0.0000     1.0000 </r>
       <r>   -12.3313     0.0000     1.0000 </r>
       <r>   -12.2142     0.0000     1.0000 </r>
       <r>   -12.0972     0.0000     1.0000 </r>
       <r>   -11.9802     0.0000     1.0000 </r>
       <r>   -11.8632     0.0000     1.0000 </r>
       <r>   -11.7461     0.0000     1.0000 </r>
       <r>   -11.6291     0.0000     1.0000 </r>
       <r>   -11.5121     0.0000     1.0000 </r>
       <r>   -11.3950     0.0000     1.0000 </r>
       <r>   -11.2780    -0.0000     1.0000 </r>
       <r>   -11.1610    -0.0000     1.0000 </r>
       <r>   -11.0440    -0.0000     1.0000 </r>
       <r>   -10.9269    -0.0000     1.0000 </r>
       <r>   -10.8099    -0.0000     1.0000 </r>
       <r>   -10.6929    -0.0034     0.9996 </r>
       <r>   -10.5758    -0.2111     0.9749 </r>
       <r>   -10.4588     1.9146     1.1990 </r>
       <r>   -10.3418     6.7251     1.9860 </r>
       <r>   -10.2248     0.1986     2.0092 </r>
       <r>   -10.1077    -0.0784     2.0000 </r>
       <r>    -9.9907    -0.0004     2.0000 </r>
       <r>    -9.8737    -0.0000     2.0000 </r>
       <r>    -9.7566    -0.0000     2.0000 </r>
       <r>    -9.6396     0.0000     2.0000 </r>
       <r>    -9.5226     0.0000     2.0000 </r>
       <r>    -9.4056     0.0000     2.0000 </r>
       <r>    -9.2885    -0.0000     2.0000 </r>
       <r>    -9.1715    -0.0000     2.0000 </r>
       <r>    -9.0545    -0.0000     2.0000 </r>
       <r>    -8.9374    -0.0000     2.0000 </r>
       <r>    -8.8204    -0.0000     2.0000 </r>
       <r>    -8.7034    -0.0000     2.0000 </r>
       <r>    -8.5864    -0.0080     1.9991 </r>
       <r>    -8.4693     0.0145     2.0008 </r>
       <r>    -8.3523     0.7362     2.0869 </r>
       <r>    -8.2353     0.1988     2.1102 </r>
       <r>    -8.1183    -0.0801     2.1008 </r>
       <r>    -8.0012     4.0792     2.5782 </r>
       <r>    -7.8842     1.8833     2.7986 </r>
       <r>    -7.7672    -0.1746     2.7781 </r>
       <r>    -7.6501    -0.0370     2.7738 </r>
       <r>    -7.5331     0.3380     2.8134 </r>
       <r>    -7.4161     1.0486     2.9361 </r>
       <r>    -7.2991     4.4382     3.4555 </r>
       <r>    -7.1820     3.1736     3.8269 </r>
       <r>    -7.0650     6.6828     4.6090 </r>
       <r>    -6.9480     2.6128     4.9147 </r>
       <r>    -6.8309    -0.2168     4.8894 </r>
       <r>    -6.7139    -0.1741     4.8690 </r>
       <r>    -6.5969     1.3849     5.0311 </r>
       <r>    -6.4799     8.8369     6.0652 </r>
       <r>    -6.3628    15.1715     7.8407 </r>
       <r>    -6.2458    18.0308     9.9508 </r>
       <r>    -6.1288     8.2070    10.9113 </r>
       <r>    -6.0117     4.4960    11.4374 </r>
       <r>    -5.8947     3.2782    11.8211 </r>
       <r>    -5.7777    24.0941    14.6408 </r>
       <r>    -5.6607    35.8974    18.8418 </r>
       <r>    -5.5436    19.0164    21.0672 </r>
       <r>    -5.4266    27.5759    24.2944 </r>
       <r>    -5.3096    19.1504    26.5355 </r>
       <r>    -5.1925    63.6149    33.9802 </r>
       <r>    -5.0755    26.2566    37.0530 </r>
       <r>    -4.9585    31.9081    40.7872 </r>
       <r>    -4.8415    44.6345    46.0107 </r>
       <r>    -4.7244    42.0372    50.9302 </r>
       <r>    -4.6074    34.7971    55.0024 </r>
       <r>    -4.4904    37.6620    59.4099 </r>
       <r>    -4.3733    14.8744    61.1507 </r>
       <r>    -4.2563    31.0269    64.7817 </r>
       <r>    -4.1393    47.0233    70.2847 </r>
       <r>    -4.0223    54.5879    76.6731 </r>
       <r>    -3.9052    39.5735    81.3043 </r>
       <r>    -3.7882    51.4558    87.3260 </r>
       <r>    -3.6712    40.5008    92.0658 </r>
       <r>    -3.5542    37.3454    96.4362 </r>
       <r>    -3.4371    78.9570   105.6764 </r>
       <r>    -3.3201    70.1671   113.8880 </r>
       <r>    -3.2031    70.6677   122.1581 </r>
       <r>    -3.0860    42.5048   127.1323 </r>
       <r>    -2.9690    47.0993   132.6443 </r>
       <r>    -2.8520    50.6345   138.5699 </r>
       <r>    -2.7350    53.2218   144.7984 </r>
       <r>    -2.6179    45.8402   150.1630 </r>
       <r>    -2.5009    43.9506   155.3064 </r>
       <r>    -2.3839    52.6067   161.4629 </r>
       <r>    -2.2668    45.6453   166.8047 </r>
       <r>    -2.1498    41.2091   171.6273 </r>
       <r>    -2.0328    57.1082   178.3106 </r>
       <r>    -1.9158    50.0514   184.1680 </r>
       <r>    -1.7987    46.9502   189.6625 </r>
       <r>    -1.6817    56.4397   196.2675 </r>
       <r>    -1.5647    56.0769   202.8301 </r>
       <r>    -1.4476    43.4054   207.9097 </r>
       <r>    -1.3306    59.5760   214.8818 </r>
       <r>    -1.2136    65.3332   222.5276 </r>
       <r>    -1.0966    66.3732   230.2952 </r>
       <r>    -0.9795    47.1792   235.8165 </r>
       <r>    -0.8625    22.4986   238.4494 </r>
       <r>    -0.7455    19.8302   240.7701 </r>
       <r>    -0.6284     7.0575   241.5961 </r>
       <r>    -0.5114     5.4725   242.2365 </r>
       <r>    -0.3944     4.7133   242.7881 </r>
       <r>    -0.2774     9.6219   243.9141 </r>
       <r>    -0.1603    13.6282   245.5090 </r>
       <r>    -0.0433     6.0628   246.2185 </r>
       <r>     0.0737     9.6262   247.3451 </r>
       <r>     0.1907    13.1377   248.8825 </r>
       <r>     0.3078     2.2843   249.1499 </r>
       <r>     0.4248     1.2523   249.2964 </r>
       <r>     0.5418     9.3230   250.3875 </r>
       <r>     0.6589     8.3908   251.3694 </r>
       <r>     0.7759     9.3776   252.4669 </r>
       <r>     0.8929     9.9005   253.6255 </r>
       <r>     1.0099     6.4305   254.3780 </r>
       <r>     1.1270     5.7995   255.0568 </r>
       <r>     1.2440     1.9178   255.2812 </r>
       <r>     1.3610     2.8123   255.6103 </r>
       <r>     1.4781     0.6423   255.6855 </r>
       <r>     1.5951    13.3982   257.2535 </r>
       <r>     1.7121    10.6344   258.4980 </r>
       <r>     1.8291     1.3103   258.6513 </r>
       <r>     1.9462     5.1145   259.2499 </r>
       <r>     2.0632     8.5920   260.2554 </r>
       <r>     2.1802    14.7457   261.9810 </r>
       <r>     2.2973    14.9966   263.7361 </r>
       <r>     2.4143    12.5773   265.2080 </r>
       <r>     2.5313     1.1804   265.3461 </r>
       <r>     2.6483     3.3534   265.7385 </r>
       <r>     2.7654    10.3836   266.9537 </r>
       <r>     2.8824     4.6303   267.4956 </r>
       <r>     2.9994     6.4807   268.2540 </r>
       <r>     3.1165     9.1743   269.3277 </r>
       <r>     3.2335     4.9354   269.9052 </r>
       <r>     3.3505     8.1269   270.8563 </r>
       <r>     3.4675     8.5152   271.8528 </r>
       <r>     3.5846    10.5141   273.0833 </r>
       <r>     3.7016     7.4041   273.9498 </r>
       <r>     3.8186     5.6112   274.6064 </r>
       <r>     3.9356     8.6320   275.6166 </r>
       <r>     4.0527    12.2707   277.0526 </r>
       <r>     4.1697     7.3376   277.9114 </r>
       <r>     4.2867     8.5903   278.9167 </r>
       <r>     4.4038     5.8996   279.6071 </r>
       <r>     4.5208     6.9681   280.4225 </r>
       <r>     4.6378     0.7139   280.5061 </r>
       <r>     4.7548     8.1402   281.4587 </r>
       <r>     4.8719    19.3734   283.7260 </r>
       <r>     4.9889     6.9548   284.5399 </r>
       <r>     5.1059     4.5458   285.0718 </r>
       <r>     5.2230     9.0280   286.1284 </r>
       <r>     5.3400    16.3091   288.0370 </r>
       <r>     5.4570     8.5996   289.0434 </r>
       <r>     5.5740     4.9084   289.6178 </r>
       <r>     5.6911     8.4790   290.6101 </r>
       <r>     5.8081    10.8516   291.8800 </r>
       <r>     5.9251    16.2363   293.7801 </r>
       <r>     6.0422    11.9561   295.1794 </r>
       <r>     6.1592     7.1447   296.0155 </r>
       <r>     6.2762     8.3072   296.9877 </r>
       <r>     6.3932     8.8150   298.0193 </r>
       <r>     6.5103    10.1771   299.2103 </r>
       <r>     6.6273    17.1520   301.2175 </r>
       <r>     6.7443    14.4362   302.9070 </r>
       <r>     6.8614    15.2329   304.6897 </r>
       <r>     6.9784     8.2198   305.6516 </r>
       <r>     7.0954     6.9629   306.4665 </r>
       <r>     7.2124     4.3785   306.9789 </r>
       <r>     7.3295     8.0145   307.9168 </r>
       <r>     7.4465     4.0827   308.3946 </r>
       <r>     7.5635     9.7256   309.5328 </r>
       <r>     7.6806    22.8870   312.2112 </r>
       <r>     7.7976    29.8828   315.7083 </r>
       <r>     7.9146    16.1478   317.5981 </r>
       <r>     8.0316     5.9451   318.2938 </r>
       <r>     8.1487     2.1297   318.5430 </r>
       <r>     8.2657     4.4015   319.0581 </r>
       <r>     8.3827    10.4436   320.2803 </r>
       <r>     8.4997    10.9397   321.5606 </r>
       <r>     8.6168     4.0309   322.0323 </r>
       <r>     8.7338     6.9000   322.8398 </r>
       <r>     8.8508     6.7087   323.6249 </r>
       <r>     8.9679     7.5290   324.5060 </r>
       <r>     9.0849    14.3399   326.1842 </r>
       <r>     9.2019    11.0447   327.4767 </r>
       <r>     9.3189     4.6716   328.0235 </r>
       <r>     9.4360    -0.1631   328.0044 </r>
       <r>     9.5530    -0.0372   328.0000 </r>
       <r>     9.6700    -0.0001   328.0000 </r>
       <r>     9.7871    -0.0000   328.0000 </r>
       <r>     9.9041    -0.0000   328.0000 </r>
       <r>    10.0211     0.0000   328.0000 </r>
       <r>    10.1381     0.0000   328.0000 </r>
       <r>    10.2552     0.0000   328.0000 </r>
       <r>    10.3722     0.0000   328.0000 </r>
       <r>    10.4892     0.0000   328.0000 </r>
       <r>    10.6063     0.0000   328.0000 </r>
       <r>    10.7233     0.0000   328.0000 </r>
       <r>    10.8403     0.0000   328.0000 </r>
      </set>
     </set>
    </array>
   </total>
  </dos>
 </calculation>
 <structure name="finalpos" >
  <crystal>
   <varray name="basis" >
    <v>       8.75400000       0.00000000       0.00000000 </v>
    <v>      -4.37700000       7.58118638       0.00000000 </v>
    <v>       0.00000000       0.00000000      20.96578547 </v>
   </varray>
   <i name="volume">   1391.40914632 </i>
   <varray name="rec_basis" >
    <v>       0.11423349       0.06595274       0.00000000 </v>
    <v>       0.00000000       0.13190548       0.00000000 </v>
    <v>       0.00000000       0.00000000       0.04769676 </v>
   </varray>
  </crystal>
  <varray name="positions" >
   <v>       0.22222222       0.11111111       0.00000000 </v>
   <v>       0.22222222       0.44444444       0.00000000 </v>
   <v>       0.22222222       0.77777778       0.00000000 </v>
   <v>       0.55555556       0.11111111       0.00000000 </v>
   <v>       0.55555556       0.44444444       0.00000000 </v>
   <v>       0.55555556       0.77777778       0.00000000 </v>
   <v>       0.88888889       0.11111111       0.00000000 </v>
   <v>       0.88888889       0.44444444       0.00000000 </v>
   <v>       0.88888889       0.77777778       0.00000000 </v>
   <v>       0.00000000       0.00000000       0.11363913 </v>
   <v>       0.00000000       0.33333333       0.11363913 </v>
   <v>       0.00000000       0.66666667       0.11363913 </v>
   <v>       0.33333333       0.00000000       0.11363913 </v>
   <v>       0.33333333       0.33333333       0.11363913 </v>
   <v>       0.33333333       0.66666667       0.11363913 </v>
   <v>       0.66666667       0.00000000       0.11363913 </v>
   <v>       0.66666667       0.33333333       0.11363913 </v>
   <v>       0.66666667       0.66666667       0.11363913 </v>
   <v>       0.99729278       0.99814390       0.45632683 </v>
   <v>       0.22294810       0.11338387       0.34293940 </v>
   <v>       0.11088461       0.22194314       0.22746181 </v>
   <v>       0.33314649       0.99777202       0.45622792 </v>
   <v>       0.55485686       0.11044160       0.34099129 </v>
   <v>       0.44384117       0.22192104       0.22738116 </v>
   <v>       0.66603236       0.99955324       0.45755097 </v>
   <v>       0.88798604       0.11043881       0.34105174 </v>
   <v>       0.77745850       0.22203923       0.22753559 </v>
   <v>       0.99716697       0.33214732       0.45625011 </v>
   <v>       0.22285726       0.44259210       0.34284637 </v>
   <v>       0.11140374       0.55444239       0.22799401 </v>
   <v>       0.55271009       0.44282813       0.34257699 </v>
   <v>       0.44384293       0.55492920       0.22735624 </v>
   <v>       0.66798694       0.33218375       0.45601198 </v>
   <v>       0.88850624       0.44422028       0.34094309 </v>
   <v>       0.77607332       0.55454197       0.22790219 </v>
   <v>       0.99943216       0.66625383       0.45709520 </v>
   <v>       0.22129304       0.77718938       0.34088953 </v>
   <v>       0.11144258       0.89004691       0.22801611 </v>
   <v>       0.33316209       0.66865409       0.45608667 </v>
   <v>       0.55487882       0.77735251       0.34094897 </v>
   <v>       0.44387957       0.88846176       0.22748625 </v>
   <v>       0.66812314       0.66896295       0.45594846 </v>
   <v>       0.88857927       0.77731123       0.34092848 </v>
   <v>       0.77746100       0.88845226       0.22751736 </v>
   <v>       0.33345554       0.33337522       0.45631330 </v>
   <v>       0.33819367       0.33746033       0.55059448 </v>
   <v>       0.34253464       0.34145056       0.60432992 </v>
  </varray>
  <varray name="selective"  type="logical" >
   <v type="logical" >  F  F  F </v>
   <v type="logical" >  F  F  F </v>
   <v type="logical" >  F  F  F </v>
   <v type="logical" >  F  F  F </v>
   <v type="logical" >  F  F  F </v>
   <v type="logical" >  F  F  F </v>
   <v type="logical" >  F  F  F </v>
   <v type="logical" >  F  F  F </v>
   <v type="logical" >  F  F  F </v>
   <v type="logical" >  F  F  F </v>
   <v type="logical" >  F  F  F </v>
   <v type="logical" >  F  F  F </v>
   <v type="logical" >  F  F  F </v>
   <v type="logical" >  F  F  F </v>
   <v type="logical" >  F  F  F </v>
   <v type="logical" >  F  F  F </v>
   <v type="logical" >  F  F  F </v>
   <v type="logical" >  F  F  F </v>
   <v type="logical" >  T  T  T </v>
   <v type="logical" >  T  T  T </v>
   <v type="logical" >  T  T  T </v>
   <v type="logical" >  T  T  T </v>
   <v type="logical" >  T  T  T </v>
   <v type="logical" >  T  T  T </v>
   <v type="logical" >  T  T  T </v>
   <v type="logical" >  T  T  T </v>
   <v type="logical" >  T  T  T </v>
   <v type="logical" >  T  T  T </v>
   <v type="logical" >  T  T  T </v>
   <v type="logical" >  T  T  T </v>
   <v type="logical" >  T  T  T </v>
   <v type="logical" >  T  T  T </v>
   <v type="logical" >  T  T  T </v>
   <v type="logical" >  T  T  T </v>
   <v type="logical" >  T  T  T </v>
   <v type="logical" >  T  T  T </v>
   <v type="logical" >  T  T  T </v>
   <v type="logical" >  T  T  T </v>
   <v type="logical" >  T  T  T </v>
   <v type="logical" >  T  T  T </v>
   <v type="logical" >  T  T  T </v>
   <v type="logical" >  T  T  T </v>
   <v type="logical" >  T  T  T </v>
   <v type="logical" >  T  T  T </v>
   <v type="logical" >  T  T  T </v>
   <v type="logical" >  T  T  T </v>
   <v type="logical" >  T  T  T </v>
  </varray>
  <nose>
   <v>      -3.00000000       0.00000000       0.00010000       0.00010000 </v>
  </nose>
 </structure>
</modeling>
