
                                 *****************
                                 * O   R   C   A *
                                 *****************

           --- An Ab Initio, DFT and Semiempirical electronic structure package ---

                  #######################################################
                  #                        -***-                        #
                  #          Department of theory and spectroscopy      #
                  #               Directorship: Frank Neese             #
                  #        Max Planck Institute fuer Kohlenforschung    #
                  #                Kaiser Wilhelm Platz 1               #
                  #                 D-45470 Muelheim/Ruhr               #
                  #                      Germany                        #
                  #                                                     #
                  #                  All rights reserved                #
                  #                        -***-                        #
                  #######################################################


                         Program Version 4.2.1 -  RELEASE  -


 With contributions from (in alphabetic order):
   Daniel Aravena         : Magnetic Suceptibility
   Michael Atanasov       : Ab Initio Ligand Field Theory (pilot matlab implementation)
   Alexander A. Auer      : GIAO ZORA, VPT2
   Ute Becker             : Parallelization
   Giovanni Bistoni       : ED, misc. LED, open-shell LED, HFLD
   Martin Brehm           : Molecular dynamics
   Dmytro Bykov           : SCF Hessian
   Vijay G. Chilkuri      : MRCI spin determinant printing, contributions to CSF-ICE
   Dipayan Datta          : RHF DLPNO-CCSD density
   Achintya Kumar Dutta   : EOM-CC, STEOM-CC
   Dmitry Ganyushin       : Spin-Orbit,Spin-Spin,Magnetic field MRCI
   Miquel Garcia          : C-PCM Hessian, Gaussian charge scheme
   Yang Guo               : DLPNO-NEVPT2, CIM, IAO-localization
   Andreas Hansen         : Spin unrestricted coupled pair/coupled cluster methods
   Benjamin Helmich-Paris : CASSCF linear response (MC-RPA)
   Lee Huntington         : MR-EOM, pCC
   Robert Izsak           : Overlap fitted RIJCOSX, COSX-SCS-MP3, EOM
   Christian Kollmar      : KDIIS, OOCD, Brueckner-CCSD(T), CCSD density
   Simone Kossmann        : Meta GGA functionals, TD-DFT gradient, OOMP2, MP2 Hessian
   Martin Krupicka        : AUTO-CI
   Lucas Lang             : DCDCAS
   Dagmar Lenk            : GEPOL surface, SMD
   Dimitrios Liakos       : Extrapolation schemes; Compound Job, initial MDCI parallelization
   Dimitrios Manganas     : Further ROCIS development; embedding schemes
   Dimitrios Pantazis     : SARC Basis sets
   Taras Petrenko         : DFT Hessian,TD-DFT gradient, ASA, ECA, R-Raman, ABS, FL, XAS/XES, NRVS
   Peter Pinski           : DLPNO-MP2, DLPNO-MP2 Gradient
   Christoph Reimann      : Effective Core Potentials
   Marius Retegan         : Local ZFS, SOC
   Christoph Riplinger    : Optimizer, TS searches, QM/MM, DLPNO-CCSD(T), (RO)-DLPNO pert. Triples
   Tobias Risthaus        : Range-separated hybrids, TD-DFT gradient, RPA, STAB
   Michael Roemelt        : Original ROCIS implementation
   Masaaki Saitow         : Open-shell DLPNO-CCSD energy and density
   Barbara Sandhoefer     : DKH picture change effects
   Avijit Sen             : IP-ROCIS
   Kantharuban Sivalingam : CASSCF convergence, NEVPT2, FIC-MRCI
   Bernardo de Souza      : ESD, SOC TD-DFT
   Georgi Stoychev        : AutoAux, RI-MP2 NMR
   Willem Van den Heuvel  : Paramagnetic NMR
   Boris Wezisla          : Elementary symmetry handling
   Frank Wennmohs         : Technical directorship


 We gratefully acknowledge several colleagues who have allowed us to
 interface, adapt or use parts of their codes:
   Stefan Grimme, W. Hujo, H. Kruse,             : VdW corrections, initial TS optimization,
                  C. Bannwarth                     DFT functionals, gCP, sTDA/sTD-DF
   Ed Valeev, F. Pavosevic, A. Kumar             : LibInt (2-el integral package), F12 methods
   Garnet Chan, S. Sharma, J. Yang, R. Olivares  : DMRG
   Ulf Ekstrom                                   : XCFun DFT Library
   Mihaly Kallay                                 : mrcc  (arbitrary order and MRCC methods)
   Andreas Klamt, Michael Diedenhofen            : otool_cosmo (COSMO solvation model)
   Jiri Pittner, Ondrej Demel                    : Mk-CCSD
   Frank Weinhold                                : gennbo (NPA and NBO analysis)
   Christopher J. Cramer and Donald G. Truhlar   : smd solvation model
   Lars Goerigk                                  : TD-DFT with DH, B97 family of functionals
   V. Asgeirsson, H. Jonsson                     : NEB implementation
   FAccTs GmbH                                   : IRC, NEB, NEB-TS, Multilevel, MM, QM/MM, CI optimization
   S Lehtola, MJT Oliveira, MAL Marques          : LibXC Library


 Your calculation uses the libint2 library for the computation of 2-el integrals
 For citations please refer to: http://libint.valeyev.net

 Your ORCA version has been built with support for libXC version: 4.2.3
 For citations please refer to: https://tddft.org/programs/libxc/

 This ORCA versions uses:
   CBLAS   interface :  Fast vector & matrix operations
   LAPACKE interface :  Fast linear algebra routines
   SCALAPACK package :  Parallel linear algebra routines


----- Orbital basis set information -----
Your calculation utilizes the basis: def2-QZVPPD
   F. Weigend and R. Ahlrichs, Phys. Chem. Chem. Phys. 7, 3297 (2005).
   D. Rappoport and F. Furche, J. Chem. Phys. 133 134105 (2010).

cite the ECPs for Au [Def2-ECP] as follows:
Ce-Yb(ecp-28): M. Dolg, H. Stoll, H.Preuss, J. Chem. Phys., 1989, 90, 1730-1734.
Y-Cd(ecp-28), Hf-Hg(ecp-46): D. Andrae,U. Haeussermann, M. Dolg, H. Stoll, H. Preuss, Theor. Chim. Acta, 1990, 77, 123-141.
In-Sb(ecp-28), Tl-Bi(ecp-46): B. Metz, H. Stoll, M. Dolg, J. Chem. Phys., 2000, 113, 2563-2569.
Te-Xe(ecp-28), Po-Rn(ecp-46): K. A. Peterson, D. Figgen, E. Goll, H. Stoll, M. Dolg, J. Chem. Phys., 2003, 119, 11113-11123.
Rb(ecp-28), Cs(ecp-46): T. Leininger, A. Nicklass, W. Kuechle, H. Stoll, M. Dolg, A. Bergner, Chem. Phys. Lett., 1996, 255, 274-280.
Sr(ecp-28), Ba(ecp-46): M. Kaupp, P. V. Schleyer, H. Stoll and H. Preuss, J. Chem. Phys., 1991, 94, 1360-1366.
La(ecp-46): M. Dolg, H. Stoll, A. Savin, H. Preuss, Theor. Chim. Acta, 1989, 75, 173-194.
Lu(ecp-28): X. Cao, M. Dolg, J. Chem. Phys., 2001, 115, 7348-7355.

ECP parameters for Au [Def2-ECP] have been obtained from:
TURBOMOLE (7.0.2)

================================================================================
                                        WARNINGS
                       Please study these warnings very carefully!
================================================================================


IMPORTANT NOTE: CASSCF must signal convergence a subsequent CASPT2/NEVPT2! 
                Set maxiter=1 to run CASPT2/NEVPT2 with arbitrary orbitals.


INFO   : the flag for use of LIBINT has been found!

================================================================================
                                       INPUT FILE
================================================================================
NAME = ./AuONMe2_cas4-2_0053.in
|  1> !  def2-QZVPPD  VeryTightSCF
|  2> %PAL NPROCS 16 END       
|  3>                          
|  4> %MaxCore 15000           
|  5>                          
|  6>                          
|  7> %casscf                  
|  8> nel     2                
|  9> norb    4                
| 10> mult    3,1              
| 11> nroots  1,1              
| 12> bweight = 1,1            
| 13> weights[0] = 1           
| 14> weights[1] = 1           
| 15> PTMethod FIC_CASPT2      
| 16> end                      
| 17>                              
| 18> *xyz 0 1                     
| 19> C     -2.2948540000  1.2304400000  -0.3608710000 
| 20> H     -3.2615380000  1.2029380000  -0.8785560000 
| 21> H     -2.2542410000  2.0767430000  0.3333650000 
| 22> H     -1.4635640000  1.3350180000  -1.0977220000 
| 23> C     -2.2949470000  -1.2303820000  -0.3609210000 
| 24> H     -2.2544120000  -2.0767170000  0.3332800000 
| 25> H     -3.2616210000  -1.2027820000  -0.8786210000 
| 26> H     -1.4636500000  -1.3349950000  -1.0977620000 
| 27> N     -2.0799470000  0.0000050000  0.3757590000 
| 28> O     -0.9906260000  -0.0000480000  1.1071700000 
| 29> Au     2.5434973948  0.0000403270  -1.1621849354 
| 30> *                            
| 31> 
| 32> 
| 33> 
| 34> 
| 35>                          ****END OF INPUT****
================================================================================

                       ****************************
                       * Single Point Calculation *
                       ****************************

---------------------------------
CARTESIAN COORDINATES (ANGSTROEM)
---------------------------------
  C     -2.294854    1.230440   -0.360871
  H     -3.261538    1.202938   -0.878556
  H     -2.254241    2.076743    0.333365
  H     -1.463564    1.335018   -1.097722
  C     -2.294947   -1.230382   -0.360921
  H     -2.254412   -2.076717    0.333280
  H     -3.261621   -1.202782   -0.878621
  H     -1.463650   -1.334995   -1.097762
  N     -2.079947    0.000005    0.375759
  O     -0.990626   -0.000048    1.107170
  Au     2.543497    0.000040   -1.162185

----------------------------
CARTESIAN COORDINATES (A.U.)
----------------------------
  NO LB      ZA    FRAG     MASS         X           Y           Z
   0 C     6.0000    0    12.011   -4.336646    2.325195   -0.681947
   1 H     1.0000    0     1.008   -6.163414    2.273223   -1.660230
   2 H     1.0000    0     1.008   -4.259898    3.924476    0.629969
   3 H     1.0000    0     1.008   -2.765735    2.522818   -2.074394
   4 C     6.0000    0    12.011   -4.336821   -2.325085   -0.682042
   5 H     1.0000    0     1.008   -4.260221   -3.924426    0.629808
   6 H     1.0000    0     1.008   -6.163570   -2.272929   -1.660353
   7 H     1.0000    0     1.008   -2.765898   -2.522775   -2.074470
   8 N     7.0000    0    14.007   -3.930530    0.000009    0.710082
   9 O     8.0000    0    15.999   -1.872012   -0.000091    2.092248
  10 Au   19.0000*   0   196.966    4.806513    0.000076   -2.196211
* core charge reduced due to ECP

--------------------------------
INTERNAL COORDINATES (ANGSTROEM)
--------------------------------
 C      0   0   0     0.000000000000     0.00000000     0.00000000
 H      1   0   0     1.096919356692     0.00000000     0.00000000
 H      1   2   0     1.095372907860   110.55824329     0.00000000
 H      1   2   3     1.115763872145   110.31989487   239.89173809
 C      1   2   3     2.460822002265    88.56086925   144.68833508
 H      5   1   2     1.095372560753   140.59078839   238.48546192
 H      5   1   2     1.096920084726    88.56066661     0.00000000
 H      5   1   2     1.115765764513    95.37904447   110.27700089
 N      5   1   2     1.450094683863    31.95075110   225.56269518
 O      9   5   1     1.312090810413   113.96950529   224.53252469
 Au    10   9   5     4.200000000036   113.41550380    68.21732655

---------------------------
INTERNAL COORDINATES (A.U.)
---------------------------
 C      0   0   0     0.000000000000     0.00000000     0.00000000
 H      1   0   0     2.072877175144     0.00000000     0.00000000
 H      1   2   0     2.069954810373   110.55824329     0.00000000
 H      1   2   3     2.108488148478   110.31989487   239.89173809
 C      1   2   3     4.650279648609    88.56086925   144.68833508
 H      5   1   2     2.069954154436   140.59078839   238.48546192
 H      5   1   2     2.072878550930    88.56066661     0.00000000
 H      5   1   2     2.108491724535    95.37904447   110.27700089
 N      5   1   2     2.740281820757    31.95075110   225.56269518
 O      9   5   1     2.479492294516   113.96950529   224.53252469
 Au    10   9   5     7.936849762536   113.41550380    68.21732655

---------------------
BASIS SET INFORMATION
---------------------
There are 5 groups of distinct atoms

 Group   1 Type C   : 16s8p4d2f1g contracted to 8s4p4d2f1g pattern {82111111/5111/1111/11/1}
 Group   2 Type H   : 7s4p2d1f contracted to 4s4p2d1f pattern {4111/1111/11/1}
 Group   3 Type N   : 16s8p4d2f1g contracted to 8s4p4d2f1g pattern {82111111/5111/1111/11/1}
 Group   4 Type O   : 16s9p4d2f1g contracted to 8s5p4d2f1g pattern {82111111/51111/1111/11/1}
 Group   5 Type Au  : 9s8p6d4f2g contracted to 7s5p4d4f2g pattern {3111111/41111/3111/1111/11}

Atom   0C    basis set group =>   1
Atom   1H    basis set group =>   2
Atom   2H    basis set group =>   2
Atom   3H    basis set group =>   2
Atom   4C    basis set group =>   1
Atom   5H    basis set group =>   2
Atom   6H    basis set group =>   2
Atom   7H    basis set group =>   2
Atom   8N    basis set group =>   3
Atom   9O    basis set group =>   4
Atom  10Au   basis set group =>   5
-------------------------
ECP PARAMETER INFORMATION
-------------------------

 Group 1, Type Au ECP Def2-ECP (replacing 60 core electrons, lmax=3)

Atom  10Au   ECP group =>   1


Checking for AutoStart:
The File: ./AuONMe2_cas4-2_0053.gbw exists
Trying to determine its content:
     ... Fine, the file contains calculation information
     ... Fine, the calculation information was read
     ... Fine, the file contains a basis set
     ... Fine, the basis set was read
     ... Fine, the file contains ECP parameters
     ... Fine, ECP parameters were read
     ... Fine, the file contains a geometry
     ... Fine, the geometry was read
     ... Fine, the file contains a set of orbitals
     ... Fine, the orbitals can be read
     => possible old guess file was deleted
     => GBW file was renamed to GES file
     => GES file is set as startup file
     => Guess is set to MORead
     ... now leaving AutoStart



           ************************************************************
           *        Program running with 16 parallel MPI-processes    *
           *              working on a common directory               *
           ************************************************************
------------------------------------------------------------------------------
                           ORCA GTO INTEGRAL CALCULATION
------------------------------------------------------------------------------

                         BASIS SET STATISTICS AND STARTUP INFO

 # of primitive gaussian shells          ...  238
 # of primitive gaussian functions       ...  660
 # of contracted shells                  ...  165
 # of contracted basis functions         ...  541
 Highest angular momentum                ...    4
 Maximum contraction depth               ...    8
 Integral package used                   ... LIBINT
 Integral threshhold            Thresh   ...  1.000e-12
 Primitive cut-off              TCut     ...  1.000e-14


------------------------------ INTEGRAL EVALUATION ----------------------------


 * One electron integrals 

   ECP integrals                         ... done
 Pre-screening matrix                    ... done
 Shell pair data                         ... done (   0.008 sec)



           ************************************************************
           *        Program running with 16 parallel MPI-processes    *
           *              working on a common directory               *
           ************************************************************
-------------------------------------------------------------------------------
                                 ORCA SCF
-------------------------------------------------------------------------------

------------
SCF SETTINGS
------------
Hamiltonian:
 Ab initio Hamiltonian  Method          .... Hartree-Fock(GTOs)


General Settings:
 Integral files         IntName         .... ./AuONMe2_cas4-2_0053
 Hartree-Fock type      HFTyp           .... CASSCF
 Total Charge           Charge          ....    0
 Multiplicity           Mult            ....    1
 Number of Electrons    NEL             ....   52
 Basis Dimension        Dim             ....  541
 Nuclear Repulsion      ENuc            ....    199.0237033258 Eh


Diagonalization of the overlap matrix:
Smallest eigenvalue                        ... 3.456e-07
Time for diagonalization                   ...    0.132 sec
Threshold for overlap eigenvalues          ... 1.000e-08
Number of eigenvalues below threshold      ... 0
Time for construction of square roots      ...    0.080 sec
Total time needed                          ...    0.215 sec

---------------------
INITIAL GUESS: MOREAD
---------------------
Guess MOs are being read from file: ./AuONMe2_cas4-2_0053.ges
Input Geometry matches current geometry (good)
Input basis set matches current basis set (good)
MOs were renormalized
Gram-Schmidt orthogonalization of all MOs with pivot on actives
                      ------------------
                      INITIAL GUESS DONE (   1.6 sec)
                      ------------------


 ... the calculation is a CASSCF calculation -I'm leaving here GOOD LUCK!!!



           ************************************************************
           *        Program running with 16 parallel MPI-processes    *
           *              working on a common directory               *
           ************************************************************
-------------------------------------------------------------------------------
                              ORCA-CASSCF
-------------------------------------------------------------------------------

Setting up the integral package       ... done
Building the CAS space                ... done (6 configurations for Mult=3)
Building the CAS space                ... done (10 configurations for Mult=1)
Note: CASPT2 memory consumption cannot be estimated prior run.

SYSTEM-SPECIFIC SETTINGS:
Number of active electrons          ...    2
Number of active orbitals           ...    4
Total number of electrons           ...   52
Total number of orbitals            ...  541

Determined orbital ranges:
   Internal       0 -   24 (  25 orbitals)
   Active        25 -   28 (   4 orbitals)
   External      29 -  540 ( 512 orbitals)
Number of rotation parameters      ...  14948

CI-STEP:
CI strategy                         ... General CI
Number of multiplicity blocks       ...    2
BLOCK  1 WEIGHT=   0.5000
  Multiplicity                      ...    3
  #(Configurations)                 ...    6
  #(CSFs)                           ...    6
  #(Roots)                          ...    1
    ROOT=0 WEIGHT=    0.500000

BLOCK  2 WEIGHT=   0.5000
  Multiplicity                      ...    1
  #(Configurations)                 ...   10
  #(CSFs)                           ...   10
  #(Roots)                          ...    1
    ROOT=0 WEIGHT=    0.500000

  PrintLevel                        ...    1
  N(GuessMat)                       ...       512
  MaxDim(CI)                        ...        10
  MaxIter(CI)                       ...        64
  Energy Tolerance CI               ...  1.00e-09
  Residual Tolerance CI             ...  1.00e-09
  Shift(CI)                         ...  1.00e-04

INTEGRAL-TRANSFORMATION-STEP:
  Algorithm                         ... EXACT

ORBITAL-IMPROVEMENT-STEP:
  Algorithm                         ... SuperCI(PT)
  Default Parametrization           ... CAYLEY
  Act-Act rotations                 ... depends on algorithm used

  Note: SuperCI(PT) will ignore FreezeIE, FreezeAct and FreezeGrad. In general Default settings are encouraged.
        In conjunction with ShiftUp, ShiftDn or GradScaling the performance of SuperCI(PT) is less optimal.  

  MaxRot                            ... 2.00e-01 
  Max. no of vectors (DIIS)         ... 15
  DThresh (cut-off) metric          ... 1.00e-06
  Switch step at gradient           ...  3.00e-02 
  Switch step at iteration          ...        50   
  Switch step to                    ... SuperCI(PT)    

SCF-SETTINGS:
  Incremental                       ... on
  RIJCOSX approximation             ... off
  RI-JK approximation               ... off
  AO integral handling              ... DIRECT
  Integral Neglect Thresh           ...  1.00e-12
  Primitive cutoff TCut             ...  1.00e-14
  Energy convergence tolerance      ...  1.00e-08
  Orbital gradient convergence      ...  1.00e-05
  Max. number of iterations         ...        75  

PT2-SETTINGS:
  A PT2 calculation will be performed on top of the CASSCF wave function (PT2 = CASPT2)   
  CASPT2 Real Levelshift            ...  0.00e+00
  CASPT2 Im.  Levelshift            ...  0.00e+00
  CASPT2 IPEA Levelshift            ...  0.00e+00
 CI step strategy                   ... General CI
  D4C handling                      ... on the disk 
  CI truncation for D4C at          ...  1.00e-10
  CI truncation for D3  at          ...  1.00e-14
  Orbitals                          ... canonical for each state 
  Last  frozen  orbital             ... 3
  First deleted orbital             ... 541

PROPERTIES-SETTINGS:
  QDPT diagonal energies            ... CASPT2 energies 

FINAL ORBITALS:
  Active   Orbitals                 ... natural 
  Internal Orbitals                 ... canonical 
  External Orbitals                 ... canonical 

------------------
CAS-SCF ITERATIONS
------------------


MACRO-ITERATION   1: 
   --- Inactive Energy E0 = -342.46591709 Eh
CI-ITERATION   0: 
  -343.331298511   0.000000000000 (    0.03)
   CI-PROBLEM SOLVED
   DENSITIES MADE
CI-ITERATION   0: 
  -343.332073156   0.000000000000 (    0.05)
   CI-PROBLEM SOLVED
   DENSITIES MADE

                 <<<<<<<<<<<<<<<<<<INITIAL CI STATE CHECK>>>>>>>>>>>>>>>>>>

BLOCK  1 MULT= 3 NROOTS= 1 
ROOT   0:  E=    -343.3312985105 Eh
      1.00000 [     0]: 1100

BLOCK  2 MULT= 1 NROOTS= 1 
ROOT   0:  E=    -343.3320731560 Eh
      0.55323 [     0]: 2000
      0.44667 [     4]: 0200

                 <<<<<<<<<<<<<<<<<<INITIAL CI STATE CHECK>>>>>>>>>>>>>>>>>>

   E(CAS)=  -343.331685833 Eh DE=     0.000000000
   --- Energy gap subspaces: Ext-Act = -0.277   Act-Int = 0.294
   N(occ)=  1.05323 0.94667 0.00007 0.00003
   ||g|| =      0.000066605 Max(G)=     0.000013701 Rot=220,24
   --- Orbital Update [SuperCI(PT)]
   --- Canonicalize Internal Space
   --- Canonicalize External Space
   --- SX_PT (Skipped TA=0 IT=0): ||X|| =      0.000051318 Max(X)(41,28) =      0.000011834 
   --- SFit(Active Orbitals)

MACRO-ITERATION   2: 
   --- Inactive Energy E0 = -342.46591250 Eh
CI-ITERATION   0: 
  -343.331298511   0.000000000000 (    0.06)
   CI-PROBLEM SOLVED
   DENSITIES MADE
CI-ITERATION   0: 
  -343.332073157   0.000000000000 (    0.08)
   CI-PROBLEM SOLVED
   DENSITIES MADE
   E(CAS)=  -343.331685834 Eh DE=    -0.000000000
   --- Energy gap subspaces: Ext-Act = -0.277   Act-Int = 0.294
   N(occ)=  1.05323 0.94667 0.00007 0.00003
   ||g|| =      0.000041769 Max(G)=    -0.000008258 Rot=220,24
                     ---- THE CAS-SCF ENERGY   HAS CONVERGED ----
                            --- FINALIZING ORBITALS ---
                    ---- DOING ONE FINAL ITERATION FOR PRINTING ----
   --- Forming Natural Orbitals
   --- Canonicalize Internal Space
   --- Canonicalize External Space

MACRO-ITERATION   3: 
   --- Inactive Energy E0 = -342.46591250 Eh
   --- All densities will be recomputed
CI-ITERATION   0: 
  -343.331298511   0.000000000000 (    0.04)
   CI-PROBLEM SOLVED
   DENSITIES MADE
CI-ITERATION   0: 
  -343.332073157   0.000000000000 (    0.04)
   CI-PROBLEM SOLVED
   DENSITIES MADE
   E(CAS)=  -343.331685834 Eh DE=    -0.000000000
   --- Energy gap subspaces: Ext-Act = -0.277   Act-Int = 0.294
   N(occ)=  1.05323 0.94667 0.00007 0.00003
   ||g|| =      0.000041769 Max(G)=    -0.000008257 Rot=220,24
--------------
CASSCF RESULTS
--------------

Final CASSCF energy       : -343.331685834 Eh   -9342.5301 eV

----------------
ORBITAL ENERGIES
----------------

  NO   OCC          E(Eh)            E(eV) 
   0   2.0000     -20.596270      -560.4530 
   1   2.0000     -15.633853      -425.4188 
   2   2.0000     -11.263948      -306.5076 
   3   2.0000     -11.263927      -306.5070 
   4   2.0000      -4.684282      -127.4658 
   5   2.0000      -2.722618       -74.0862 
   6   2.0000      -2.722579       -74.0851 
   7   2.0000      -2.722510       -74.0833 
   8   2.0000      -1.423947       -38.7476 
   9   2.0000      -1.117226       -30.4013 
  10   2.0000      -0.980051       -26.6686 
  11   2.0000      -0.827236       -22.5102 
  12   2.0000      -0.665922       -18.1207 
  13   2.0000      -0.663523       -18.0554 
  14   2.0000      -0.658174       -17.9098 
  15   2.0000      -0.564777       -15.3684 
  16   2.0000      -0.562404       -15.3038 
  17   2.0000      -0.542469       -14.7613 
  18   2.0000      -0.465918       -12.6783 
  19   2.0000      -0.464509       -12.6399 
  20   2.0000      -0.449810       -12.2399 
  21   2.0000      -0.449801       -12.2397 
  22   2.0000      -0.449656       -12.2358 
  23   2.0000      -0.449554       -12.2330 
  24   2.0000      -0.449484       -12.2311 
  25   1.0532      -0.155695        -4.2367 
  26   0.9467      -0.131682        -3.5832 
  27   0.0001       0.323801         8.8111 
  28   0.0000       0.288598         7.8531 
  29   0.0000       0.046889         1.2759 
  30   0.0000       0.057231         1.5573 
  31   0.0000       0.076400         2.0790 
  32   0.0000       0.085654         2.3308 
  33   0.0000       0.089867         2.4454 
  34   0.0000       0.099072         2.6959 
  35   0.0000       0.117044         3.1849 
  36   0.0000       0.127369         3.4659 
  37   0.0000       0.136526         3.7151 
  38   0.0000       0.150241         4.0883 
  39   0.0000       0.159116         4.3298 
  40   0.0000       0.171070         4.6550 
  41   0.0000       0.182587         4.9684 
  42   0.0000       0.188753         5.1362 
  43   0.0000       0.195918         5.3312 
  44   0.0000       0.205820         5.6006 
  45   0.0000       0.215235         5.8568 
  46   0.0000       0.221781         6.0350 
  47   0.0000       0.236978         6.4485 
  48   0.0000       0.244296         6.6476 
  49   0.0000       0.246939         6.7196 
  50   0.0000       0.258627         7.0376 
  51   0.0000       0.271957         7.4003 
  52   0.0000       0.275949         7.5089 
  53   0.0000       0.302885         8.2419 
  54   0.0000       0.310607         8.4521 
  55   0.0000       0.312533         8.5045 
  56   0.0000       0.317146         8.6300 
  57   0.0000       0.323260         8.7963 
  58   0.0000       0.331301         9.0152 
  59   0.0000       0.335815         9.1380 
  60   0.0000       0.342141         9.3101 
  61   0.0000       0.355892         9.6843 
  62   0.0000       0.359715         9.7883 
  63   0.0000       0.362071         9.8524 
  64   0.0000       0.378616        10.3027 
  65   0.0000       0.384607        10.4657 
  66   0.0000       0.398223        10.8362 
  67   0.0000       0.400563        10.8999 
  68   0.0000       0.405706        11.0398 
  69   0.0000       0.409007        11.1296 
  70   0.0000       0.410091        11.1591 
  71   0.0000       0.415343        11.3021 
  72   0.0000       0.419337        11.4107 
  73   0.0000       0.423909        11.5352 
  74   0.0000       0.430831        11.7235 
  75   0.0000       0.433431        11.7943 
  76   0.0000       0.437494        11.9048 
  77   0.0000       0.449717        12.2374 
  78   0.0000       0.452829        12.3221 
  79   0.0000       0.455716        12.4007 
  80   0.0000       0.462553        12.5867 
  81   0.0000       0.477237        12.9863 
  82   0.0000       0.478595        13.0232 
  83   0.0000       0.484243        13.1769 
  84   0.0000       0.491272        13.3682 
  85   0.0000       0.494568        13.4579 
  86   0.0000       0.510066        13.8796 
  87   0.0000       0.517467        14.0810 
  88   0.0000       0.524664        14.2768 
  89   0.0000       0.529267        14.4021 
  90   0.0000       0.537459        14.6250 
  91   0.0000       0.541004        14.7215 
  92   0.0000       0.560942        15.2640 
  93   0.0000       0.561178        15.2704 
  94   0.0000       0.565607        15.3909 
  95   0.0000       0.569313        15.4918 
  96   0.0000       0.569537        15.4979 
  97   0.0000       0.601138        16.3578 
  98   0.0000       0.613512        16.6945 
  99   0.0000       0.619687        16.8625 
 100   0.0000       0.626462        17.0469 
 101   0.0000       0.647200        17.6112 
 102   0.0000       0.652550        17.7568 
 103   0.0000       0.668493        18.1906 
 104   0.0000       0.683778        18.6065 
 105   0.0000       0.688283        18.7291 
 106   0.0000       0.698900        19.0180 
 107   0.0000       0.702574        19.1180 
 108   0.0000       0.723316        19.6824 
 109   0.0000       0.729572        19.8527 
 110   0.0000       0.752650        20.4807 
 111   0.0000       0.765309        20.8251 
 112   0.0000       0.777364        21.1532 
 113   0.0000       0.779603        21.2141 
 114   0.0000       0.796359        21.6700 
 115   0.0000       0.810161        22.0456 
 116   0.0000       0.822295        22.3758 
 117   0.0000       0.837953        22.8019 
 118   0.0000       0.863646        23.5010 
 119   0.0000       0.868007        23.6197 
 120   0.0000       0.871261        23.7082 
 121   0.0000       0.918349        24.9896 
 122   0.0000       0.924005        25.1435 
 123   0.0000       0.940453        25.5910 
 124   0.0000       0.947506        25.7830 
 125   0.0000       0.950033        25.8517 
 126   0.0000       0.984584        26.7919 
 127   0.0000       1.021726        27.8026 
 128   0.0000       1.027697        27.9651 
 129   0.0000       1.029439        28.0125 
 130   0.0000       1.032238        28.0886 
 131   0.0000       1.054401        28.6917 
 132   0.0000       1.062563        28.9138 
 133   0.0000       1.074588        29.2410 
 134   0.0000       1.087492        29.5922 
 135   0.0000       1.098910        29.9029 
 136   0.0000       1.127513        30.6812 
 137   0.0000       1.144321        31.1386 
 138   0.0000       1.157948        31.5094 
 139   0.0000       1.174308        31.9545 
 140   0.0000       1.179335        32.0913 
 141   0.0000       1.211474        32.9659 
 142   0.0000       1.217055        33.1177 
 143   0.0000       1.220018        33.1984 
 144   0.0000       1.225153        33.3381 
 145   0.0000       1.232243        33.5310 
 146   0.0000       1.239409        33.7260 
 147   0.0000       1.239665        33.7330 
 148   0.0000       1.249716        34.0065 
 149   0.0000       1.256851        34.2007 
 150   0.0000       1.258752        34.2524 
 151   0.0000       1.265749        34.4428 
 152   0.0000       1.292178        35.1620 
 153   0.0000       1.303173        35.4611 
 154   0.0000       1.320152        35.9232 
 155   0.0000       1.324095        36.0305 
 156   0.0000       1.352537        36.8044 
 157   0.0000       1.359551        36.9953 
 158   0.0000       1.383670        37.6516 
 159   0.0000       1.386900        37.7395 
 160   0.0000       1.435396        39.0591 
 161   0.0000       1.463685        39.8289 
 162   0.0000       1.482053        40.3287 
 163   0.0000       1.494771        40.6748 
 164   0.0000       1.497133        40.7391 
 165   0.0000       1.544641        42.0318 
 166   0.0000       1.567000        42.6403 
 167   0.0000       1.567121        42.6435 
 168   0.0000       1.578463        42.9521 
 169   0.0000       1.607243        43.7353 
 170   0.0000       1.610611        43.8270 
 171   0.0000       1.615634        43.9636 
 172   0.0000       1.641194        44.6592 
 173   0.0000       1.645775        44.7838 
 174   0.0000       1.648437        44.8563 
 175   0.0000       1.655772        45.0558 
 176   0.0000       1.674213        45.5577 
 177   0.0000       1.696372        46.1606 
 178   0.0000       1.740661        47.3658 
 179   0.0000       1.770331        48.1732 
 180   0.0000       1.776477        48.3404 
 181   0.0000       1.788628        48.6710 
 182   0.0000       1.823854        49.6296 
 183   0.0000       1.866384        50.7869 
 184   0.0000       1.888526        51.3894 
 185   0.0000       1.897248        51.6267 
 186   0.0000       1.956100        53.2282 
 187   0.0000       2.005621        54.5757 
 188   0.0000       2.031641        55.2838 
 189   0.0000       2.109547        57.4037 
 190   0.0000       2.120936        57.7136 
 191   0.0000       2.133930        58.0672 
 192   0.0000       2.135994        58.1234 
 193   0.0000       2.144206        58.3468 
 194   0.0000       2.232296        60.7439 
 195   0.0000       2.244558        61.0775 
 196   0.0000       2.246039        61.1178 
 197   0.0000       2.248742        61.1914 
 198   0.0000       2.279248        62.0215 
 199   0.0000       2.280365        62.0519 
 200   0.0000       2.287893        62.2567 
 201   0.0000       2.290362        62.3239 
 202   0.0000       2.312242        62.9193 
 203   0.0000       2.371061        64.5199 
 204   0.0000       2.373302        64.5808 
 205   0.0000       2.384245        64.8786 
 206   0.0000       2.408625        65.5420 
 207   0.0000       2.417726        65.7897 
 208   0.0000       2.442025        66.4509 
 209   0.0000       2.487330        67.6837 
 210   0.0000       2.490255        67.7633 
 211   0.0000       2.499011        68.0016 
 212   0.0000       2.514505        68.4232 
 213   0.0000       2.566368        69.8344 
 214   0.0000       2.620279        71.3014 
 215   0.0000       2.621449        71.3332 
 216   0.0000       2.622922        71.3733 
 217   0.0000       2.632870        71.6440 
 218   0.0000       2.636988        71.7561 
 219   0.0000       2.640107        71.8410 
 220   0.0000       2.644929        71.9722 
 221   0.0000       2.647110        72.0315 
 222   0.0000       2.658805        72.3498 
 223   0.0000       2.671130        72.6851 
 224   0.0000       2.677855        72.8682 
 225   0.0000       2.684034        73.0363 
 226   0.0000       2.691158        73.2301 
 227   0.0000       2.756555        75.0097 
 228   0.0000       2.776271        75.5462 
 229   0.0000       2.795466        76.0685 
 230   0.0000       2.813148        76.5497 
 231   0.0000       2.831263        77.0426 
 232   0.0000       2.861642        77.8692 
 233   0.0000       2.864709        77.9527 
 234   0.0000       2.878512        78.3283 
 235   0.0000       2.878645        78.3319 
 236   0.0000       2.878952        78.3403 
 237   0.0000       2.879762        78.3623 
 238   0.0000       2.880884        78.3928 
 239   0.0000       2.881290        78.4039 
 240   0.0000       2.886700        78.5511 
 241   0.0000       2.888988        78.6134 
 242   0.0000       2.891380        78.6784 
 243   0.0000       2.906472        79.0891 
 244   0.0000       2.970433        80.8296 
 245   0.0000       2.971734        80.8650 
 246   0.0000       2.990927        81.3872 
 247   0.0000       3.025570        82.3299 
 248   0.0000       3.051428        83.0336 
 249   0.0000       3.060140        83.2706 
 250   0.0000       3.063147        83.3525 
 251   0.0000       3.089198        84.0614 
 252   0.0000       3.121895        84.9511 
 253   0.0000       3.126991        85.0897 
 254   0.0000       3.142090        85.5006 
 255   0.0000       3.167550        86.1934 
 256   0.0000       3.168472        86.2185 
 257   0.0000       3.189656        86.7949 
 258   0.0000       3.224395        87.7403 
 259   0.0000       3.252139        88.4952 
 260   0.0000       3.253946        88.5444 
 261   0.0000       3.292757        89.6005 
 262   0.0000       3.303267        89.8865 
 263   0.0000       3.305385        89.9441 
 264   0.0000       3.378977        91.9466 
 265   0.0000       3.393442        92.3402 
 266   0.0000       3.413424        92.8840 
 267   0.0000       3.417034        92.9822 
 268   0.0000       3.460319        94.1601 
 269   0.0000       3.505868        95.3995 
 270   0.0000       3.532984        96.1374 
 271   0.0000       3.543741        96.4301 
 272   0.0000       3.548057        96.5475 
 273   0.0000       3.576094        97.3105 
 274   0.0000       3.592609        97.7599 
 275   0.0000       3.649700        99.3134 
 276   0.0000       3.650521        99.3357 
 277   0.0000       3.679485       100.1239 
 278   0.0000       3.707419       100.8840 
 279   0.0000       3.726524       101.4039 
 280   0.0000       3.752403       102.1081 
 281   0.0000       3.777107       102.7803 
 282   0.0000       3.795629       103.2843 
 283   0.0000       3.846903       104.6796 
 284   0.0000       3.859845       105.0317 
 285   0.0000       3.870296       105.3161 
 286   0.0000       3.894404       105.9721 
 287   0.0000       3.928236       106.8927 
 288   0.0000       4.006824       109.0312 
 289   0.0000       4.013697       109.2182 
 290   0.0000       4.089174       111.2721 
 291   0.0000       4.091267       111.3290 
 292   0.0000       4.120667       112.1290 
 293   0.0000       4.149861       112.9235 
 294   0.0000       4.193197       114.1027 
 295   0.0000       4.197269       114.2135 
 296   0.0000       4.221858       114.8826 
 297   0.0000       4.296986       116.9269 
 298   0.0000       4.326959       117.7425 
 299   0.0000       4.372198       118.9736 
 300   0.0000       4.382849       119.2634 
 301   0.0000       4.451900       121.1424 
 302   0.0000       4.488394       122.1354 
 303   0.0000       4.499661       122.4420 
 304   0.0000       4.524338       123.1135 
 305   0.0000       4.558139       124.0333 
 306   0.0000       4.594581       125.0249 
 307   0.0000       4.644489       126.3830 
 308   0.0000       4.730965       128.7361 
 309   0.0000       4.768494       129.7573 
 310   0.0000       4.771668       129.8437 
 311   0.0000       4.835658       131.5849 
 312   0.0000       4.961522       135.0099 
 313   0.0000       5.085199       138.3753 
 314   0.0000       5.173848       140.7876 
 315   0.0000       5.217068       141.9636 
 316   0.0000       5.318815       144.7323 
 317   0.0000       5.528594       150.4407 
 318   0.0000       5.535053       150.6164 
 319   0.0000       5.615061       152.7936 
 320   0.0000       5.699078       155.0798 
 321   0.0000       5.710374       155.3872 
 322   0.0000       5.720473       155.6620 
 323   0.0000       5.774316       157.1271 
 324   0.0000       5.802091       157.8829 
 325   0.0000       5.823505       158.4656 
 326   0.0000       5.826064       158.5353 
 327   0.0000       5.861382       159.4963 
 328   0.0000       5.908149       160.7689 
 329   0.0000       5.910075       160.8213 
 330   0.0000       5.936409       161.5379 
 331   0.0000       5.955667       162.0619 
 332   0.0000       5.975514       162.6020 
 333   0.0000       6.042649       164.4288 
 334   0.0000       6.069351       165.1554 
 335   0.0000       6.099091       165.9647 
 336   0.0000       6.137239       167.0028 
 337   0.0000       6.141717       167.1246 
 338   0.0000       6.159218       167.6008 
 339   0.0000       6.174424       168.0146 
 340   0.0000       6.217744       169.1934 
 341   0.0000       6.221884       169.3061 
 342   0.0000       6.234887       169.6599 
 343   0.0000       6.235849       169.6861 
 344   0.0000       6.271334       170.6517 
 345   0.0000       6.288089       171.1076 
 346   0.0000       6.317555       171.9094 
 347   0.0000       6.317730       171.9142 
 348   0.0000       6.328837       172.2164 
 349   0.0000       6.330012       172.2484 
 350   0.0000       6.338708       172.4850 
 351   0.0000       6.340286       172.5279 
 352   0.0000       6.340890       172.5444 
 353   0.0000       6.343659       172.6197 
 354   0.0000       6.344918       172.6540 
 355   0.0000       6.367285       173.2626 
 356   0.0000       6.369200       173.3147 
 357   0.0000       6.413236       174.5130 
 358   0.0000       6.427725       174.9073 
 359   0.0000       6.477830       176.2707 
 360   0.0000       6.496172       176.7698 
 361   0.0000       6.542173       178.0216 
 362   0.0000       6.587097       179.2440 
 363   0.0000       6.593573       179.4203 
 364   0.0000       6.604538       179.7186 
 365   0.0000       6.621773       180.1876 
 366   0.0000       6.623850       180.2441 
 367   0.0000       6.685467       181.9208 
 368   0.0000       6.706385       182.4900 
 369   0.0000       6.719285       182.8410 
 370   0.0000       6.722552       182.9299 
 371   0.0000       6.763815       184.0528 
 372   0.0000       6.764844       184.0808 
 373   0.0000       6.797944       184.9815 
 374   0.0000       6.861075       186.6993 
 375   0.0000       6.942621       188.9183 
 376   0.0000       6.946961       189.0364 
 377   0.0000       6.988350       190.1627 
 378   0.0000       6.988695       190.1721 
 379   0.0000       7.031129       191.3267 
 380   0.0000       7.058927       192.0832 
 381   0.0000       7.109723       193.4654 
 382   0.0000       7.194102       195.7615 
 383   0.0000       7.238440       196.9680 
 384   0.0000       7.250666       197.3006 
 385   0.0000       7.291475       198.4111 
 386   0.0000       7.333838       199.5639 
 387   0.0000       7.395926       201.2534 
 388   0.0000       7.404073       201.4751 
 389   0.0000       7.530514       204.9157 
 390   0.0000       7.583947       206.3697 
 391   0.0000       7.613253       207.1671 
 392   0.0000       7.626269       207.5213 
 393   0.0000       7.644889       208.0280 
 394   0.0000       7.654156       208.2802 
 395   0.0000       7.654339       208.2852 
 396   0.0000       7.654580       208.2917 
 397   0.0000       7.654633       208.2932 
 398   0.0000       7.654690       208.2947 
 399   0.0000       7.655636       208.3204 
 400   0.0000       7.655977       208.3297 
 401   0.0000       7.658365       208.3947 
 402   0.0000       7.660153       208.4434 
 403   0.0000       7.660330       208.4482 
 404   0.0000       7.668595       208.6731 
 405   0.0000       7.706100       209.6936 
 406   0.0000       7.713360       209.8912 
 407   0.0000       7.779627       211.6944 
 408   0.0000       7.783084       211.7885 
 409   0.0000       7.785438       211.8525 
 410   0.0000       7.847301       213.5359 
 411   0.0000       7.892248       214.7590 
 412   0.0000       7.896505       214.8748 
 413   0.0000       7.995917       217.5800 
 414   0.0000       8.013592       218.0609 
 415   0.0000       8.023839       218.3398 
 416   0.0000       8.031670       218.5529 
 417   0.0000       8.063222       219.4114 
 418   0.0000       8.081186       219.9003 
 419   0.0000       8.091129       220.1708 
 420   0.0000       8.106615       220.5922 
 421   0.0000       8.155804       221.9307 
 422   0.0000       8.172586       222.3874 
 423   0.0000       8.178109       222.5377 
 424   0.0000       8.237753       224.1606 
 425   0.0000       8.252171       224.5530 
 426   0.0000       8.283057       225.3934 
 427   0.0000       8.325781       226.5560 
 428   0.0000       8.331427       226.7097 
 429   0.0000       8.373212       227.8467 
 430   0.0000       8.417209       229.0439 
 431   0.0000       8.452132       229.9942 
 432   0.0000       8.471841       230.5305 
 433   0.0000       8.534320       232.2307 
 434   0.0000       8.535033       232.2501 
 435   0.0000       8.608096       234.2382 
 436   0.0000       8.609218       234.2687 
 437   0.0000       8.679348       236.1771 
 438   0.0000       8.681871       236.2457 
 439   0.0000       8.696117       236.6334 
 440   0.0000       8.724161       237.3965 
 441   0.0000       8.736355       237.7283 
 442   0.0000       8.754168       238.2130 
 443   0.0000       8.777246       238.8410 
 444   0.0000       8.778684       238.8801 
 445   0.0000       8.810950       239.7582 
 446   0.0000       8.825264       240.1476 
 447   0.0000       8.827728       240.2147 
 448   0.0000       8.846273       240.7193 
 449   0.0000       8.850912       240.8456 
 450   0.0000       8.876662       241.5462 
 451   0.0000       8.886598       241.8166 
 452   0.0000       8.895189       242.0504 
 453   0.0000       8.970165       244.0906 
 454   0.0000       8.973392       244.1784 
 455   0.0000       9.162413       249.3219 
 456   0.0000       9.214808       250.7477 
 457   0.0000       9.215963       250.7791 
 458   0.0000       9.224328       251.0067 
 459   0.0000       9.246612       251.6131 
 460   0.0000       9.269641       252.2397 
 461   0.0000       9.323229       253.6980 
 462   0.0000       9.337819       254.0950 
 463   0.0000       9.367289       254.8969 
 464   0.0000       9.369906       254.9681 
 465   0.0000       9.375319       255.1154 
 466   0.0000       9.420382       256.3416 
 467   0.0000       9.437867       256.8174 
 468   0.0000       9.467742       257.6304 
 469   0.0000       9.484936       258.0982 
 470   0.0000       9.573605       260.5110 
 471   0.0000       9.609709       261.4935 
 472   0.0000       9.615868       261.6611 
 473   0.0000       9.752085       265.3677 
 474   0.0000       9.781344       266.1639 
 475   0.0000       9.833992       267.5965 
 476   0.0000       9.902236       269.4536 
 477   0.0000       9.977664       271.5060 
 478   0.0000      10.040967       273.2286 
 479   0.0000      10.111986       275.1611 
 480   0.0000      10.130456       275.6637 
 481   0.0000      10.134728       275.7800 
 482   0.0000      10.175103       276.8786 
 483   0.0000      10.185588       277.1639 
 484   0.0000      10.223611       278.1986 
 485   0.0000      10.250184       278.9217 
 486   0.0000      10.296835       280.1911 
 487   0.0000      10.301508       280.3183 
 488   0.0000      10.321518       280.8628 
 489   0.0000      10.352112       281.6953 
 490   0.0000      10.442530       284.1557 
 491   0.0000      10.449632       284.3490 
 492   0.0000      10.483250       285.2637 
 493   0.0000      10.499733       285.7123 
 494   0.0000      10.602222       288.5011 
 495   0.0000      10.621705       289.0313 
 496   0.0000      10.622048       289.0406 
 497   0.0000      10.717473       291.6373 
 498   0.0000      10.719142       291.6827 
 499   0.0000      10.860463       295.5282 
 500   0.0000      10.923137       297.2337 
 501   0.0000      10.939863       297.6888 
 502   0.0000      11.001850       299.3756 
 503   0.0000      11.234247       305.6994 
 504   0.0000      11.296697       307.3988 
 505   0.0000      11.381084       309.6951 
 506   0.0000      11.584059       315.2183 
 507   0.0000      11.637247       316.6656 
 508   0.0000      11.657767       317.2240 
 509   0.0000      11.793962       320.9300 
 510   0.0000      11.913496       324.1827 
 511   0.0000      11.943106       324.9884 
 512   0.0000      12.333207       335.6036 
 513   0.0000      12.409684       337.6847 
 514   0.0000      12.510273       340.4218 
 515   0.0000      12.630517       343.6938 
 516   0.0000      12.644162       344.0651 
 517   0.0000      12.702007       345.6392 
 518   0.0000      12.753302       347.0350 
 519   0.0000      12.856743       349.8498 
 520   0.0000      12.892813       350.8313 
 521   0.0000      13.036960       354.7537 
 522   0.0000      13.441957       365.7742 
 523   0.0000      13.601214       370.1079 
 524   0.0000      13.691036       372.5520 
 525   0.0000      13.832134       376.3915 
 526   0.0000      14.694153       399.8482 
 527   0.0000      14.959906       407.0797 
 528   0.0000      25.933578       705.6885 
 529   0.0000      25.966918       706.5958 
 530   0.0000      26.904799       732.1168 
 531   0.0000      29.934858       814.5689 
 532   0.0000      29.974047       815.6353 
 533   0.0000      38.914611      1058.9204 
 534   0.0000      46.172588      1256.4200 
 535   0.0000      49.378329      1343.6527 
 536   0.0000     150.397820      4092.5327 
 537   0.0000     150.426185      4093.3046 
 538   0.0000     199.849705      5438.1869 
 539   0.0000     207.092830      5635.2824 
 540   0.0000     256.235672      6972.5271 


---------------------------------------------
CAS-SCF STATES FOR BLOCK  1 MULT= 3 NROOTS= 1
---------------------------------------------

ROOT   0:  E=    -343.3312985108 Eh
      1.00000 [     0]: 1100


---------------------------------------------
CAS-SCF STATES FOR BLOCK  2 MULT= 1 NROOTS= 1
---------------------------------------------

ROOT   0:  E=    -343.3320731567 Eh
      0.55323 [     0]: 2000
      0.44667 [     4]: 0200


-----------------------------
SA-CASSCF TRANSITION ENERGIES
------------------------------

LOWEST ROOT (ROOT 0 ,MULT 1) =   -343.332073157 Eh -9342.541 eV

STATE   ROOT MULT  DE/a.u.    DE/eV    DE/cm**-1
   1:    0    3   0.000775     0.021    170.0


--------------
DENSITY MATRIX
--------------

                   0          1          2          3    
      0       1.053229  -0.000000  -0.000000   0.000000
      1      -0.000000   0.946669  -0.000000   0.000000
      2      -0.000000  -0.000000   0.000075   0.000000
      3       0.000000   0.000000   0.000000   0.000027
Trace of the electron density:  2.000000
Extracting Spin-Density from 2-RDM (MULT=3) ... done
Extracting Spin-Density from 2-RDM (MULT=1) ... done

-------------------
SPIN-DENSITY MATRIX
-------------------

                   0          1          2          3    
      0       0.500000  -0.000000  -0.000088   0.000001
      1      -0.000000   0.499999  -0.000711   0.000003
      2      -0.000088  -0.000711   0.000001  -0.000000
      3       0.000001   0.000003  -0.000000   0.000000
Trace of the spin density:  1.000000

-----------------
ENERGY COMPONENTS
-----------------

One electron energy          :   -918.377644948 Eh      -24990.3262 eV
Two electron energy          :    376.022255789 Eh       10232.0858 eV
Nuclear repulsion energy     :    199.023703326 Eh        5415.7103 eV
                               ----------------
                                 -343.331685834

Kinetic energy               :    254.302231859 Eh        6919.9155 eV
Potential energy             :   -597.633917693 Eh      -16262.4457 eV
Virial ratio                 :     -2.350093089 
                               ----------------
                                 -343.331685834

Core energy                  :   -342.465912504 Eh    -9318.9712 eV


----------------------------
LOEWDIN ORBITAL-COMPOSITIONS
----------------------------

                      0         1         2         3         4         5   
                 -20.59627 -15.63385 -11.26395 -11.26393  -4.68428  -2.72262
                   2.00000   2.00000   2.00000   2.00000   2.00000   2.00000
                  --------  --------  --------  --------  --------  --------
 0 C  s               0.0       0.0      48.1      49.6       0.0       0.0
 2 H  dyz             0.0       0.0       0.1       0.1       0.0       0.0
 3 H  dxz             0.0       0.0       0.1       0.1       0.0       0.0
 4 C  s               0.0       0.0      49.6      48.1       0.0       0.0
 5 H  dyz             0.0       0.0       0.1       0.1       0.0       0.0
 7 H  dxz             0.0       0.0       0.1       0.1       0.0       0.0
 8 N  s               0.0      99.2       0.0       0.0       0.0       0.0
 8 N  py              0.0       0.0       0.1       0.0       0.0       0.0
 8 N  dyz             0.0       0.0       0.2       0.0       0.0       0.0
 8 N  dx2y2           0.0       0.0       0.0       0.1       0.0       0.0
 9 O  s              99.7       0.0       0.0       0.0       0.0       0.0
10 Au s               0.0       0.0       0.0       0.0     100.0       0.0
10 Au pz              0.0       0.0       0.0       0.0       0.0      22.3
10 Au px              0.0       0.0       0.0       0.0       0.0      77.7

                      6         7         8         9        10        11   
                  -2.72258  -2.72251  -1.42395  -1.11723  -0.98005  -0.82724
                   2.00000   2.00000   2.00000   2.00000   2.00000   2.00000
                  --------  --------  --------  --------  --------  --------
 0 C  s               0.0       0.0       1.9       6.7      12.2       5.7
 0 C  pz              0.0       0.0       1.1       0.2       0.2       2.5
 0 C  px              0.0       0.0       0.4       0.1       0.0       0.2
 0 C  py              0.0       0.0       2.0       2.4       0.7       4.8
 0 C  dz2             0.0       0.0       0.0       0.5       0.4       0.1
 0 C  dxz             0.0       0.0       0.5       0.2       0.0       0.1
 0 C  dyz             0.0       0.0       1.6       0.3       0.0       1.5
 0 C  dx2y2           0.0       0.0       0.5       1.2       0.8       0.8
 0 C  dxy             0.0       0.0       0.7       0.1       0.0       0.1
 0 C  f0              0.0       0.0       0.1       0.1       0.0       0.1
 0 C  f+2             0.0       0.0       0.2       0.4       0.3       0.0
 0 C  f-2             0.0       0.0       0.1       0.0       0.0       0.0
 0 C  f-3             0.0       0.0       0.0       0.2       0.0       0.1
 1 H  s               0.0       0.0       0.2       2.1       3.8       4.7
 1 H  pz              0.0       0.0       0.2       0.4       0.5       0.0
 1 H  px              0.0       0.0       0.3       1.0       1.6       1.0
 1 H  py              0.0       0.0       0.2       0.3       0.3       0.2
 1 H  dxz             0.0       0.0       0.0       0.1       0.1       0.0
 2 H  s               0.0       0.0       0.4       1.1       5.3       3.8
 2 H  pz              0.0       0.0       0.0       0.4       0.9       1.3
 2 H  py              0.0       0.0       0.9       0.9       1.4       0.1
 2 H  dz2             0.0       0.0       0.0       0.0       0.0       0.1
 2 H  dyz             0.0       0.0       0.0       0.0       0.1       0.1
 2 H  dx2y2           0.0       0.0       0.0       0.1       0.1       0.0
 3 H  s               0.0       0.0       0.4       1.4       3.9       4.3
 3 H  pz              0.0       0.0       0.6       0.5       1.1       0.2
 3 H  px              0.0       0.0       0.0       0.8       1.2       0.9
 3 H  py              0.0       0.0       0.3       0.2       0.1       0.1
 3 H  dxz             0.0       0.0       0.0       0.1       0.2       0.1
 4 C  s               0.0       0.0       1.9       6.7      12.2       5.7
 4 C  pz              0.0       0.0       1.1       0.2       0.2       2.5
 4 C  px              0.0       0.0       0.4       0.1       0.0       0.2
 4 C  py              0.0       0.0       2.0       2.4       0.7       4.8
 4 C  dz2             0.0       0.0       0.0       0.5       0.4       0.1
 4 C  dxz             0.0       0.0       0.5       0.2       0.0       0.1
 4 C  dyz             0.0       0.0       1.6       0.3       0.0       1.5
 4 C  dx2y2           0.0       0.0       0.5       1.2       0.8       0.8
 4 C  dxy             0.0       0.0       0.7       0.1       0.0       0.1
 4 C  f0              0.0       0.0       0.1       0.1       0.0       0.1
 4 C  f+2             0.0       0.0       0.2       0.4       0.3       0.0
 4 C  f-2             0.0       0.0       0.1       0.0       0.0       0.0
 4 C  f-3             0.0       0.0       0.0       0.2       0.0       0.1
 5 H  s               0.0       0.0       0.4       1.1       5.3       3.8
 5 H  pz              0.0       0.0       0.0       0.4       0.9       1.3
 5 H  py              0.0       0.0       0.9       0.9       1.4       0.1
 5 H  dz2             0.0       0.0       0.0       0.0       0.0       0.1
 5 H  dyz             0.0       0.0       0.0       0.0       0.1       0.1
 5 H  dx2y2           0.0       0.0       0.0       0.1       0.1       0.0
 6 H  s               0.0       0.0       0.2       2.1       3.8       4.7
 6 H  pz              0.0       0.0       0.2       0.4       0.5       0.0
 6 H  px              0.0       0.0       0.3       1.0       1.6       1.0
 6 H  py              0.0       0.0       0.2       0.3       0.3       0.2
 6 H  dxz             0.0       0.0       0.0       0.1       0.1       0.0
 7 H  s               0.0       0.0       0.4       1.4       3.9       4.3
 7 H  pz              0.0       0.0       0.6       0.5       1.1       0.2
 7 H  px              0.0       0.0       0.0       0.8       1.2       0.9
 7 H  py              0.0       0.0       0.3       0.2       0.1       0.1
 7 H  dxz             0.0       0.0       0.0       0.1       0.2       0.1
 8 N  s               0.0       0.0      18.4       8.9       0.0       9.2
 8 N  pz              0.0       0.0       1.5      10.0       0.0       0.6
 8 N  px              0.0       0.0       5.7       6.7       0.0       0.3
 8 N  py              0.0       0.0       0.0       0.0      19.5       0.0
 8 N  dxz             0.0       0.0       3.2       1.2       0.0       1.2
 8 N  dyz             0.0       0.0       0.0       0.0       3.9       0.0
 8 N  dx2y2           0.0       0.0       0.8       4.4       0.0       0.4
 8 N  dxy             0.0       0.0       0.0       0.0       0.2       0.0
 8 N  f0              0.0       0.0       0.1       0.2       0.0       0.0
 8 N  f+2             0.0       0.0       0.7       0.0       0.0       0.1
 8 N  f+3             0.0       0.0       0.2       0.0       0.0       0.0
 9 O  s               0.0       0.0      35.8      18.8       0.0       6.8
 9 O  pz              0.0       0.0       1.8       1.7       0.0       3.4
 9 O  px              0.0       0.0       3.4       2.1       0.0       9.7
 9 O  py              0.0       0.0       0.0       0.0       2.7       0.0
 9 O  dxz             0.0       0.0       1.3       1.4       0.0       0.5
 9 O  dyz             0.0       0.0       0.0       0.0       1.0       0.0
 9 O  dx2y2           0.0       0.0       0.5       0.2       0.0       0.6
 9 O  dxy             0.0       0.0       0.0       0.0       1.4       0.0
 9 O  f+2             0.0       0.0       0.1       0.0       0.0       0.1
10 Au pz              0.0      77.7       0.0       0.0       0.0       0.0
10 Au px              0.0      22.3       0.1       0.0       0.0       0.1
10 Au py            100.0       0.0       0.0       0.0       0.0       0.0

                     12        13        14        15        16        17   
                  -0.66592  -0.66352  -0.65817  -0.56478  -0.56240  -0.54247
                   2.00000   2.00000   2.00000   2.00000   2.00000   2.00000
                  --------  --------  --------  --------  --------  --------
 0 C  s               0.6       0.1       0.1       0.0       0.0       0.1
 0 C  pz              8.3       0.0       5.1       9.5       4.1       6.7
 0 C  px              2.0       6.4       6.0       5.3      17.0       1.5
 0 C  py              3.2       5.7       4.6       0.4       0.0      11.7
 0 C  dz2             0.1       0.1       0.4       0.0       0.1       0.1
 0 C  dxz             0.0       0.3       0.2       0.7       2.1       0.2
 0 C  dyz             0.6       0.3       0.2       0.2       0.2       2.2
 0 C  dx2y2           0.5       0.1       0.1       1.5       0.1       2.1
 0 C  dxy             0.1       0.3       0.6       0.1       0.4       0.1
 0 C  f0              0.1       0.0       0.0       0.1       0.0       0.0
 0 C  f-1             0.2       0.0       0.2       0.1       0.0       0.2
 0 C  f-2             0.0       0.1       0.1       0.1       0.0       0.0
 0 C  f+3             0.0       0.0       0.0       0.1       0.1       0.0
 0 C  f-3             0.0       0.2       0.1       0.0       0.0       0.0
 1 H  s               5.0       1.6       0.8       7.7       4.1       3.7
 1 H  pz              0.1       0.1       0.8       0.4       0.8       0.3
 1 H  px              0.4       0.2       0.2       0.3       0.5       0.2
 1 H  py              0.4       0.7       0.3       0.2       0.0       0.5
 1 H  dz2             0.0       0.0       0.1       0.0       0.2       0.0
 1 H  dxz             0.0       0.0       0.1       0.0       0.2       0.0
 1 H  dyz             0.0       0.1       0.0       0.0       0.0       0.1
 1 H  dxy             0.1       0.2       0.1       0.0       0.0       0.2
 2 H  s               0.1       2.5       4.6       3.6       0.6      12.1
 2 H  pz              0.9       0.2       0.1       0.3       0.2       0.2
 2 H  px              0.2       0.4       0.6       0.5       1.5       0.1
 2 H  py              0.2       0.1       0.2       0.2       0.1       0.4
 2 H  dz2             0.2       0.0       0.0       0.1       0.1       0.0
 2 H  dxz             0.0       0.1       0.1       0.1       0.3       0.0
 2 H  dx2y2           0.1       0.0       0.0       0.1       0.0       0.0
 2 H  dxy             0.0       0.1       0.1       0.1       0.3       0.0
 3 H  s               1.6       2.6       3.0       0.0      11.6       0.2
 3 H  pz              0.2       0.3       0.1       0.7       0.3       0.5
 3 H  px              0.7       0.1       0.2       0.6       0.4       0.2
 3 H  py              0.2       0.2       0.8       0.1       0.1       0.8
 3 H  dz2             0.1       0.1       0.0       0.2       0.0       0.2
 3 H  dyz             0.1       0.0       0.1       0.0       0.0       0.2
 3 H  dx2y2           0.1       0.0       0.0       0.1       0.0       0.0
 3 H  dxy             0.0       0.0       0.1       0.0       0.0       0.2
 4 C  s               0.6       0.1       0.1       0.0       0.0       0.1
 4 C  pz              8.3       0.0       5.1       9.5       4.1       6.7
 4 C  px              2.0       6.4       6.0       5.3      17.0       1.5
 4 C  py              3.2       5.7       4.6       0.4       0.0      11.7
 4 C  dz2             0.1       0.1       0.4       0.0       0.1       0.1
 4 C  dxz             0.0       0.3       0.2       0.7       2.1       0.2
 4 C  dyz             0.6       0.3       0.2       0.2       0.2       2.2
 4 C  dx2y2           0.5       0.1       0.1       1.5       0.1       2.1
 4 C  dxy             0.1       0.3       0.6       0.1       0.4       0.1
 4 C  f0              0.1       0.0       0.0       0.1       0.0       0.0
 4 C  f-1             0.2       0.0       0.2       0.1       0.0       0.2
 4 C  f-2             0.0       0.1       0.1       0.1       0.0       0.0
 4 C  f+3             0.0       0.0       0.0       0.1       0.1       0.0
 4 C  f-3             0.0       0.2       0.1       0.0       0.0       0.0
 5 H  s               0.1       2.5       4.6       3.6       0.6      12.1
 5 H  pz              0.9       0.2       0.1       0.3       0.2       0.2
 5 H  px              0.2       0.4       0.6       0.5       1.5       0.1
 5 H  py              0.2       0.1       0.2       0.2       0.1       0.4
 5 H  dz2             0.2       0.0       0.0       0.1       0.1       0.0
 5 H  dxz             0.0       0.1       0.1       0.1       0.3       0.0
 5 H  dx2y2           0.1       0.0       0.0       0.1       0.0       0.0
 5 H  dxy             0.0       0.1       0.1       0.1       0.3       0.0
 6 H  s               5.0       1.6       0.8       7.7       4.1       3.7
 6 H  pz              0.1       0.1       0.8       0.4       0.8       0.3
 6 H  px              0.4       0.2       0.2       0.3       0.5       0.2
 6 H  py              0.4       0.7       0.3       0.2       0.0       0.5
 6 H  dz2             0.0       0.0       0.1       0.0       0.2       0.0
 6 H  dxz             0.0       0.0       0.1       0.0       0.2       0.0
 6 H  dyz             0.0       0.1       0.0       0.0       0.0       0.1
 6 H  dxy             0.1       0.2       0.1       0.0       0.0       0.2
 7 H  s               1.6       2.6       3.0       0.0      11.6       0.2
 7 H  pz              0.2       0.3       0.1       0.7       0.3       0.5
 7 H  px              0.7       0.1       0.2       0.6       0.4       0.2
 7 H  py              0.2       0.2       0.8       0.1       0.1       0.8
 7 H  dz2             0.1       0.1       0.0       0.2       0.0       0.2
 7 H  dyz             0.1       0.0       0.1       0.0       0.0       0.2
 7 H  dx2y2           0.1       0.0       0.0       0.1       0.0       0.0
 7 H  dxy             0.0       0.0       0.1       0.0       0.0       0.2
 8 N  s               0.0       0.2       0.4       0.1       0.0       0.0
 8 N  pz              0.0       2.9      19.2       4.8       0.0       0.0
 8 N  px              0.0      14.0       6.5       4.1       0.0       0.0
 8 N  py             20.9       0.0       0.0       0.0       0.6       3.9
 8 N  dz2             0.0       0.3       0.8       1.6       0.0       0.0
 8 N  dxz             0.0       2.8       0.2       0.8       0.0       0.0
 8 N  dyz             2.7       0.0       0.0       0.0       0.8       1.3
 8 N  dx2y2           0.0       2.6       0.9       1.7       0.0       0.0
 8 N  dxy             1.7       0.0       0.0       0.0       5.6       0.1
 8 N  f-1             0.0       0.0       0.0       0.0       0.2       0.6
 8 N  f-2             0.1       0.0       0.0       0.0       0.3       0.2
 8 N  f-3             0.0       0.0       0.0       0.0       0.0       0.3
 9 O  s               0.0       4.1       0.3       1.4       0.0       0.0
 9 O  pz              0.0      11.4       1.7       4.8       0.0       0.0
 9 O  px              0.0      13.3       6.6      12.7       0.0       0.0
 9 O  py             20.1       0.0       0.0       0.0       0.3       2.4
 9 O  dz2             0.0       0.0       1.7       0.1       0.0       0.0
 9 O  dxz             0.0       0.3       0.1       0.2       0.0       0.0
 9 O  dyz             0.2       0.0       0.0       0.0       0.3       0.1
 9 O  dx2y2           0.0       0.6       0.4       0.2       0.0       0.0
 9 O  dxy             0.4       0.0       0.0       0.0       0.1       0.2
 9 O  f+1             0.0       0.0       0.1       0.0       0.0       0.0

                     18        19        20        21        22        23   
                  -0.46592  -0.46451  -0.44981  -0.44980  -0.44966  -0.44955
                   2.00000   2.00000   2.00000   2.00000   2.00000   2.00000
                  --------  --------  --------  --------  --------  --------
 0 C  s               0.1       0.3       0.0       0.0       0.0       0.0
 0 C  pz              2.7       1.6       0.0       0.0       0.0       0.0
 0 C  px              3.6       0.8       0.0       0.0       0.0       0.0
 0 C  py              0.1       3.3       0.0       0.0       0.0       0.0
 0 C  dz2             1.1       0.0       0.0       0.0       0.0       0.0
 0 C  dxz             2.4       0.5       0.0       0.0       0.0       0.0
 0 C  dyz             1.2       0.2       0.0       0.0       0.0       0.0
 0 C  dx2y2           0.1       0.2       0.0       0.0       0.0       0.0
 0 C  dxy             1.0       0.0       0.0       0.0       0.0       0.0
 0 C  f-1             0.4       0.0       0.0       0.0       0.0       0.0
 0 C  f-2             0.1       0.0       0.0       0.0       0.0       0.0
 0 C  f+3             0.5       0.0       0.0       0.0       0.0       0.0
 1 H  s               0.8       1.1       0.0       0.0       0.0       0.0
 1 H  pz              0.3       0.0       0.0       0.0       0.0       0.0
 1 H  px              0.3       0.0       0.0       0.0       0.0       0.0
 1 H  py              0.0       0.3       0.0       0.0       0.0       0.0
 2 H  s               1.2       0.3       0.0       0.0       0.0       0.0
 2 H  px              0.4       0.0       0.0       0.0       0.0       0.0
 2 H  py              0.2       0.2       0.0       0.0       0.0       0.0
 3 H  s               6.1       0.1       0.0       0.0       0.0       0.0
 3 H  pz              0.3       0.1       0.0       0.0       0.0       0.0
 3 H  px              0.1       0.0       0.0       0.0       0.0       0.0
 3 H  py              0.0       0.2       0.0       0.0       0.0       0.0
 4 C  s               0.1       0.3       0.0       0.0       0.0       0.0
 4 C  pz              2.7       1.6       0.0       0.0       0.0       0.0
 4 C  px              3.6       0.8       0.0       0.0       0.0       0.0
 4 C  py              0.1       3.3       0.0       0.0       0.0       0.0
 4 C  dz2             1.1       0.0       0.0       0.0       0.0       0.0
 4 C  dxz             2.4       0.5       0.0       0.0       0.0       0.0
 4 C  dyz             1.2       0.2       0.0       0.0       0.0       0.0
 4 C  dx2y2           0.1       0.2       0.0       0.0       0.0       0.0
 4 C  dxy             1.0       0.0       0.0       0.0       0.0       0.0
 4 C  f-1             0.4       0.0       0.0       0.0       0.0       0.0
 4 C  f-2             0.1       0.0       0.0       0.0       0.0       0.0
 4 C  f+3             0.5       0.0       0.0       0.0       0.0       0.0
 5 H  s               1.2       0.3       0.0       0.0       0.0       0.0
 5 H  px              0.4       0.0       0.0       0.0       0.0       0.0
 5 H  py              0.2       0.2       0.0       0.0       0.0       0.0
 6 H  s               0.8       1.1       0.0       0.0       0.0       0.0
 6 H  pz              0.3       0.0       0.0       0.0       0.0       0.0
 6 H  px              0.3       0.0       0.0       0.0       0.0       0.0
 6 H  py              0.0       0.3       0.0       0.0       0.0       0.0
 7 H  s               6.1       0.1       0.0       0.0       0.0       0.0
 7 H  pz              0.3       0.1       0.0       0.0       0.0       0.0
 7 H  px              0.1       0.0       0.0       0.0       0.0       0.0
 7 H  py              0.0       0.2       0.0       0.0       0.0       0.0
 8 N  s               0.9       0.0       0.0       0.0       0.0       0.0
 8 N  pz             13.6       0.0       0.0       0.0       0.0       0.0
 8 N  px             13.1       0.0       0.0       0.0       0.0       0.0
 8 N  py              0.0       7.6       0.0       0.0       0.0       0.0
 8 N  dz2             3.6       0.0       0.0       0.0       0.0       0.0
 8 N  dxz             0.6       0.0       0.0       0.0       0.0       0.0
 8 N  dyz             0.0       3.6       0.0       0.0       0.0       0.0
 8 N  dxy             0.0       3.4       0.0       0.0       0.0       0.0
 8 N  f+1             0.1       0.0       0.0       0.0       0.0       0.0
 8 N  f-2             0.0       0.8       0.0       0.0       0.0       0.0
 8 N  f+3             0.4       0.0       0.0       0.0       0.0       0.0
 8 N  f-3             0.0       1.1       0.0       0.0       0.0       0.0
 9 O  s               0.2       0.0       0.0       0.0       0.0       0.0
 9 O  pz             14.9       0.0       0.0       0.0       0.0       0.0
 9 O  px              2.8       0.0       0.0       0.0       0.0       0.0
 9 O  py              0.0      60.8       0.0       0.0       0.0       0.1
 9 O  dz2             0.6       0.0       0.0       0.0       0.0       0.0
 9 O  dyz             0.0       0.6       0.0       0.0       0.0       0.0
 9 O  dx2y2           0.4       0.0       0.0       0.0       0.0       0.0
 9 O  dxy             0.0       1.0       0.0       0.0       0.0       0.0
 9 O  f+1             0.2       0.0       0.0       0.0       0.0       0.0
 9 O  f-2             0.0       0.1       0.0       0.0       0.0       0.0
10 Au dz2             0.0       0.0       3.0       0.0      60.3       0.0
10 Au dxz             0.2       0.0      23.4       0.0      21.9       0.0
10 Au dyz             0.0       0.0       0.0      31.4       0.0      68.5
10 Au dx2y2           0.0       0.0      73.5       0.0      17.7       0.0
10 Au dxy             0.0       0.1       0.0      68.5       0.0      31.3

                     24        25        26        27        28        29   
                  -0.44948  -0.15570  -0.13168   0.32380   0.28860   0.04689
                   2.00000   1.05323   0.94667   0.00007   0.00003   0.00000
                  --------  --------  --------  --------  --------  --------
 0 C  s               0.0       0.2       0.0       0.1       0.3       4.7
 0 C  pz              0.0       0.0       0.1       0.0       0.2       0.2
 0 C  px              0.0       0.1       0.0       0.4       1.1       0.0
 0 C  py              0.0       0.1       0.1       0.1       0.1       0.1
 0 C  dz2             0.0       0.1       0.1       0.2       0.1       0.1
 0 C  dxz             0.0       0.2       0.1       0.2       0.4       0.1
 0 C  dyz             0.0       0.3       0.3       0.1       0.4       0.0
 0 C  dx2y2           0.0       0.2       0.1       0.3       1.8       0.0
 0 C  dxy             0.0       0.2       0.2       1.2       0.1       0.0
 0 C  f-1             0.0       0.1       0.1       0.0       0.0       0.0
 0 C  f+3             0.0       0.1       0.1       0.0       0.0       0.0
 1 H  s               0.0       0.0       0.0       0.0       0.1       0.3
 1 H  pz              0.0       0.0       0.0       0.0       0.0       0.6
 1 H  px              0.0       0.0       0.0       0.0       0.1       0.8
 2 H  s               0.0       0.0       0.1       0.1       0.1       0.1
 2 H  px              0.0       0.0       0.0       0.1       0.2       0.0
 2 H  py              0.0       0.0       0.0       0.0       0.0       0.6
 3 H  s               0.0       0.2       0.2       0.1       0.9       0.4
 3 H  pz              0.0       0.1       0.0       0.5       0.2       1.6
 3 H  px              0.0       0.4       0.1       0.6       4.3       0.2
 3 H  py              0.0       0.1       0.1       0.4       0.2       0.1
 4 C  s               0.0       0.2       0.0       0.1       0.3       4.8
 4 C  pz              0.0       0.0       0.1       0.0       0.2       0.2
 4 C  px              0.0       0.1       0.0       0.4       1.1       0.0
 4 C  py              0.0       0.1       0.1       0.1       0.1       0.1
 4 C  dz2             0.0       0.1       0.1       0.2       0.1       0.1
 4 C  dxz             0.0       0.2       0.1       0.2       0.4       0.1
 4 C  dyz             0.0       0.3       0.3       0.1       0.4       0.0
 4 C  dx2y2           0.0       0.2       0.1       0.3       1.8       0.0
 4 C  dxy             0.0       0.2       0.2       1.2       0.1       0.0
 4 C  f-1             0.0       0.1       0.1       0.0       0.0       0.0
 4 C  f+3             0.0       0.1       0.1       0.0       0.0       0.0
 5 H  s               0.0       0.0       0.1       0.1       0.1       0.1
 5 H  px              0.0       0.0       0.0       0.1       0.2       0.0
 5 H  py              0.0       0.0       0.0       0.0       0.0       0.6
 6 H  s               0.0       0.0       0.0       0.0       0.1       0.3
 6 H  pz              0.0       0.0       0.0       0.0       0.0       0.6
 6 H  px              0.0       0.0       0.0       0.0       0.1       0.9
 7 H  s               0.0       0.2       0.2       0.1       0.9       0.4
 7 H  pz              0.0       0.1       0.0       0.5       0.2       1.6
 7 H  px              0.0       0.4       0.1       0.6       4.2       0.2
 7 H  py              0.0       0.1       0.1       0.4       0.2       0.1
 8 N  s               0.0       0.3       0.2       0.2       0.0       0.0
 8 N  pz              0.0       3.5       3.6       0.0       0.0       0.1
 8 N  px              0.0       3.6       3.7       1.2       0.0       0.0
 8 N  py              0.0       0.0       0.0       0.0       0.4       0.0
 8 N  dz2             0.0       1.5       1.3       0.6       0.0       0.0
 8 N  dxz             0.0       1.1       1.0       0.5       0.0       0.0
 8 N  dyz             0.0       0.0       0.0       0.0       0.6       0.0
 8 N  dx2y2           0.0       1.2       1.1       1.4       0.0       0.1
 8 N  dxy             0.0       0.0       0.0       0.0       1.2       0.0
 8 N  f0              0.0       0.1       0.1       0.1       0.0       0.0
 8 N  f+1             0.0       0.7       0.7       0.0       0.0       0.0
 8 N  f-1             0.0       0.0       0.0       0.0       0.1       0.0
 9 O  s               0.0       0.2       0.0       3.2       0.0       0.0
 9 O  pz              0.0      21.3      20.6       1.1       0.0       0.3
 9 O  px              0.0      12.2      13.1       6.0       0.0       0.8
 9 O  py              0.0       0.0       0.0       0.0       4.5       0.0
 9 O  dz2             0.0       0.8       0.8       0.8       0.0       0.0
 9 O  dxz             0.0       0.4       0.1      18.2       0.0       0.0
 9 O  dyz             0.0       0.0       0.0       0.0       9.8       0.0
 9 O  dx2y2           0.0       0.8       0.3       4.7       0.0       0.1
 9 O  dxy             0.0       0.0       0.0       0.0       8.6       0.0
 9 O  f+1             0.0       0.2       0.2       0.0       0.0       0.0
 9 O  f-2             0.0       0.0       0.0       0.0       0.1       0.0
 9 O  f-3             0.0       0.0       0.0       0.0       0.2       0.0
10 Au s               0.0      46.8      48.7       2.1       0.0       0.3
10 Au pz              0.0       0.0       0.1      10.0       0.0      49.7
10 Au px              0.0       0.0       0.2      30.6       0.0      27.8
10 Au py              0.0       0.0       0.0       0.0      41.3       0.0
10 Au dz2            36.6       0.0       0.0       0.2       0.0       0.0
10 Au dxz            54.4       0.0       0.0       3.6       0.0       0.0
10 Au dyz             0.0       0.0       0.0       0.0       1.0       0.0
10 Au dx2y2           8.7       0.0       0.0       3.3       0.0       0.0
10 Au dxy             0.0       0.0       0.0       0.0       7.0       0.0
10 Au f0              0.0       0.0       0.0       0.5       0.0       0.0
10 Au f+2             0.0       0.0       0.0       1.3       0.0       0.0
10 Au f-2             0.0       0.0       0.0       0.0       1.0       0.0
10 Au f+3             0.0       0.0       0.0       0.8       0.0       0.0
10 Au f-3             0.0       0.0       0.0       0.0       2.4       0.0

                     30        31        32        33        34        35   
                   0.05723   0.07640   0.08565   0.08987   0.09907   0.11704
                   0.00000   0.00000   0.00000   0.00000   0.00000   0.00000
                  --------  --------  --------  --------  --------  --------
 0 C  s              19.0      21.6       3.2       0.0       0.2       0.0
 0 C  pz              0.1       0.1       0.0       0.0       0.7       0.5
 0 C  px              0.3       0.2       0.1       0.0       0.2       1.3
 0 C  py              0.3       0.8       0.0       0.0       0.0       0.0
 0 C  dz2             0.1       0.1       0.0       0.0       0.0       0.1
 0 C  dxz             0.0       0.2       0.0       0.0       0.5       1.6
 0 C  dyz             0.0       0.9       0.0       0.0       0.2       0.1
 0 C  dx2y2           0.0       0.5       0.4       0.6       0.1       2.3
 0 C  dxy             0.0       0.8       0.2       0.0       0.2       0.1
 1 H  s               1.3       0.3       0.3       0.0       0.2       0.1
 1 H  pz              1.4       0.9       0.1       0.0       1.8       1.6
 1 H  px              4.2       2.7       1.0       0.0       2.0       2.8
 1 H  py              0.3       3.8       0.0       0.0       0.1       0.3
 2 H  s               0.8       1.4       0.1       0.0       0.3       0.1
[...]
J-operator construction            ...   305.917 sec
K-operator construction            ...    80.441 sec
Collecting buffer JAO 
Collecting buffer KAO 
   ... leaving the partial transformation section

     D1, D2 Build      ... done in        0.0 sec
     D3 Build          ... CI space truncated: 6 -> 6 CFGs 
                       ... RI space truncated: 6 -> 6 CFGs 
                       ... 
                       ... correcting norm (1.000000e+00) 
                       ... done in        0.0 sec
     Hole densities    ... done in        0.0 sec
     Calc Fock         ... done in       22.6 sec
 Rebuild D4 OnDisk for CASPT    ...
data streamed 0.00 GB
                       ... density        0.1 sec
                       ... 
     Class VIJAB       ... done in        0.2 sec
     Class ITAB        ... Skipped =  11010048 of     22020096 LowestEV= 1.334759e-01 ... done in        0.2 sec 
     Class TUAB        ...  ERROR! All eigenvalues are <= 0 !!
Skipped =   3932160 of      4194304 LowestEV=-3.058927e-17 ... done in        0.2 sec 
     Class IJTA        ... Skipped =         0 of       903168 LowestEV=-1.540853e-01 ... done in        0.1 sec 
     Class IJTU        ... Skipped =       693 of         3696 LowestEV=-2.877250e-01 ... done in        0.0 sec 
     Class ITUA/ITAU   ... Skipped =    204288 of       344064 LowestEV=-2.066267e-02 ... done in        0.0 sec 
     Class TUVA        ... Skipped =     30720 of        32768 LowestEV= 1.331598e-01 ... done in        0.0 sec 
     Class ITUV        ... Skipped =        44 of         1344 LowestEV=-1.547258e-01 ... done in        0.0 sec 

-----------------------------------
 CASPT2-D Energy =     -1.517085136
-----------------------------------

Class V0_ijab: dE=     -1.283078940
Class Vm1_iab: dE=     -0.120886955
Class Vm2_ab : dE=     -0.000023519
Class V1_ija : dE=     -0.078747575
Class V2_ij  : dE=     -0.002343162
Class V0_ia  : dE=     -0.030749892
Class Vm1_a  : dE=     -0.000072208
Class V1_i   : dE=     -0.001182885


smallest energy denominator IJAB =      0.992383065
smallest energy denominator ITAB =      0.676573778
smallest energy denominator IJTA =      0.791391457
smallest energy denominator TUAB =      0.381216346
smallest energy denominator IJTU =      0.610845363
smallest energy denominator ITAU =      0.475528864
smallest energy denominator TUVA =      0.180066111
smallest energy denominator ITUV =      0.294559426

 Iter           EPT2     EHylleraas  residual norm    Time
    1    -1.51708514    -1.51281973     0.07353893     8.5
    2    -1.51281973    -1.51483158     0.01562874     8.8
    3    -1.51478852    -1.51494043     0.00386184     8.8
    4    -1.51491830    -1.51494936     0.00103038     8.8
    5    -1.51494643    -1.51495013     0.00026639     9.0
    6    -1.51495082    -1.51495019     0.00004977     9.1
    7    -1.51495028    -1.51495019     0.00000994     9.3
    8    -1.51495017    -1.51495019     0.00000207     9.1
    9    -1.51495019    -1.51495019     0.00000043     9.1
   10    -1.51495019    -1.51495019     0.00000009     6.3

 CASPT2 calculation converged in 10 iterations 


 Reference Weight =      0.723516265

 --------------------
  MULT 1, ROOT 0 
 --------------------
   --- Canonicalize Internal Space
   --- Canonicalize External Space

Entering the partial transformation section

-------------------------------
PARTIAL INTEGRAL TRANSFORMATION
-------------------------------

Dimension of the basis                     ...          541
Number of internal MOs                     ...           25 (4-28)
Pair cutoff                                ...    1.000e-14 Eh
Number of AO pairs included in the trafo   ...       133453
Total Number of distinct AO pairs          ...       146611
Memory devoted for trafo                   ...        14904 MB 
Memory needed per MO pair                  ...            1 MB
Max. Number of MO pairs treated together   ...        13324 
Memory needed per MO                       ...           91 MB
Max. Number of MOs treated per batch       ...           25 
Number Format for Storage                  ... Double (8 Byte)
Integral package used                      ... LIBINT

 --->>> The Coulomb operators (i,j|mue,nue) will be calculated
 --->>> The Exchange operators (i,mue|j,nue) will be calculated

Starting integral evaluation:
<ss|**>:     21154766 b     9867 skpd     1.794 s (  0.000 ms/b)
<sp|**>:     32024305 b    12689 skpd     5.305 s (  0.000 ms/b)
<sd|**>:     21624001 b    10860 skpd     6.231 s (  0.000 ms/b)
<sf|**>:     11719491 b     7385 skpd     5.594 s (  0.000 ms/b)
<sg|**>:      3657882 b     2416 skpd     3.154 s (  0.001 ms/b)
<pp|**>:     12476758 b     3840 skpd     5.940 s (  0.000 ms/b)
<pd|**>:     16571631 b     6245 skpd    13.779 s (  0.001 ms/b)
<pf|**>:      9108068 b     4365 skpd    13.400 s (  0.001 ms/b)
<pg|**>:      2836796 b     1524 skpd     5.856 s (  0.002 ms/b)
<dd|**>:      5792662 b     2585 skpd     8.660 s (  0.001 ms/b)
<df|**>:      6105939 b     3338 skpd    14.983 s (  0.002 ms/b)
<dg|**>:      1873918 b     1113 skpd     6.382 s (  0.003 ms/b)
<ff|**>:      1788646 b     1146 skpd     7.612 s (  0.004 ms/b)
<fg|**>:       984903 b      605 skpd     5.888 s (  0.006 ms/b)
<gg|**>:       196171 b       86 skpd     2.015 s (  0.010 ms/b)
Collecting buffer AOJ 
    ... done with AO integral generation
Closing buffer AOJ ( 0.76 GB; CompressionRatio= 1.08)
Number of MO pairs included in the trafo   ...  325
    ... Now performing second half transformation
Closing buffer JAO ( 0.02 GB; CompressionRatio= 1.00)
Closing buffer KAO ( 0.01 GB; CompressionRatio= 1.00)
TOTAL TIME for half transformation ...   553.002 sec
AO-integral generation             ...    74.004 sec
Quarter transformation             ...    32.765 sec
J-operator construction            ...   306.831 sec
K-operator construction            ...   138.679 sec
Collecting buffer JAO 
Collecting buffer KAO 
   ... leaving the partial transformation section

     D1, D2 Build      ... done in        0.0 sec
     D3 Build          ... CI space truncated: 10 -> 10 CFGs 
                       ... RI space truncated: 10 -> 10 CFGs 
                       ... 
                       ... correcting norm (1.000000e+00) 
                       ... done in        0.0 sec
     Hole densities    ... done in        0.0 sec
     Calc Fock         ... done in       22.7 sec
 Rebuild D4 OnDisk for CASPT    ...
data streamed 0.00 GB
                       ... density        0.1 sec
                       ... 
     Class VIJAB       ... done in        0.2 sec
     Class ITAB        ... Skipped =         0 of     22020096 LowestEV= 1.304275e-01 ... done in        0.3 sec 
     Class TUAB        ...  ERROR! All eigenvalues are <= 0 !!
Skipped =   3932160 of      4194304 LowestEV= 2.904999e-01 ... done in        0.2 sec 
     Class IJTA        ... Skipped =         0 of       903168 LowestEV=-1.566675e-01 ... done in        0.1 sec 
     Class IJTU        ... Skipped =         0 of         3696 LowestEV=-2.854349e-01 ... done in        0.0 sec 
     Class ITUA/ITAU   ... Skipped =    172032 of       344064 LowestEV=-2.964496e-02 ... done in        0.0 sec 
     Class TUVA        ... Skipped =     30720 of        32768 LowestEV= 1.304275e-01 ... done in        0.4 sec 
     Class ITUV        ... Skipped =        44 of         1344 LowestEV=-1.575402e-01 ... done in        0.0 sec 

-----------------------------------
 CASPT2-D Energy =     -1.517163458
-----------------------------------

Class V0_ijab: dE=     -1.283069479
Class Vm1_iab: dE=     -0.120383752
Class Vm2_ab : dE=     -0.000050640
Class V1_ija : dE=     -0.078813048
Class V2_ij  : dE=     -0.002415936
Class V0_ia  : dE=     -0.031183644
Class Vm1_a  : dE=     -0.000017350
Class V1_i   : dE=     -0.001229610


smallest energy denominator IJAB =      0.993109068
smallest energy denominator ITAB =      0.673854100
smallest energy denominator IJTA =      0.789569485
smallest energy denominator TUAB =      0.384244091
smallest energy denominator IJTU =      0.613930014
smallest energy denominator ITAU =      0.466909576
smallest energy denominator TUVA =      0.177299566
smallest energy denominator ITUV =      0.292142225

 Iter           EPT2     EHylleraas  residual norm    Time
    1    -1.51716346    -1.51286604     0.07409092    10.6
    2    -1.51286604    -1.51491006     0.01579427    10.3
    3    -1.51486561    -1.51502212     0.00397031    10.1
    4    -1.51499918    -1.51503163     0.00107806     9.8
    5    -1.51502862    -1.51503247     0.00028518    10.0
    6    -1.51503320    -1.51503254     0.00005495     9.8
    7    -1.51503264    -1.51503254     0.00001141     9.9
    8    -1.51503253    -1.51503254     0.00000250     9.8
    9    -1.51503254    -1.51503254     0.00000057    10.0
   10    -1.51503254    -1.51503254     0.00000015    10.0

 CASPT2 calculation converged in 10 iterations 


 Reference Weight =      0.723376657

 ===============================================================
                       CASPT2 Results  
 ===============================================================
   *********************
    MULT 3, ROOT 0 
   *********************

  Class V0_ijab :	 dE = -1.282272541880 
  Class Vm1_iab :	 dE = -0.120980933698 
  Class Vm2_ab  :	 dE = -0.000024298488 
  Class V1_ija  :	 dE = -0.077497242315 
  Class V2_ij   :	 dE = -0.002023264461 
  Class V0_ia   :	 dE = -0.030971884543 
  Class Vm1_a   :	 dE = -0.000073472699 
  Class V1_i    :	 dE = -0.001106549081 

 --------------------------------------------------------------- 
 	 Total Energy Correction : dE = -1.51495018716480
 --------------------------------------------------------------- 
 	 Reference  Energy       : E0 = -343.33129851076490
 	 Reference Weight        : W0 = 0.72351626483859
 --------------------------------------------------------------- 
 	 Total Energy (E0+dE)    : E  = -344.84624869792970
 --------------------------------------------------------------- 

   *********************
    MULT 1, ROOT 0 
   *********************

  Class V0_ijab :	 dE = -1.282266362994 
  Class Vm1_iab :	 dE = -0.120468509509 
  Class Vm2_ab  :	 dE = -0.000051620607 
  Class V1_ija  :	 dE = -0.077561620827 
  Class V2_ij   :	 dE = -0.002093765149 
  Class V0_ia   :	 dE = -0.031421388515 
  Class Vm1_a   :	 dE = -0.000018544701 
  Class V1_i    :	 dE = -0.001150727859 

 --------------------------------------------------------------- 
 	 Total Energy Correction : dE = -1.51503254016160
 --------------------------------------------------------------- 
 	 Reference  Energy       : E0 = -343.33207315671950
 	 Reference Weight        : W0 = 0.72337665661224
 --------------------------------------------------------------- 
 	 Total Energy (E0+dE)    : E  = -344.84710569688110
 --------------------------------------------------------------- 

-----------------------
 NEVPT2 TOTAL ENERGIES
-----------------------
# This can be used as input for the MRCI SOC block to replace
# the diagonal energies within the QDPT treatment. 
# Note that multiplicty blocks must be ordered in decending order e.g. mult 5,3,1! 

STATE   ROOT MULT  Energy/a.u.   MRCI SOC BLOCK INPUT (cm**-1)
   0:    0    3  -344.846249    EDIAG[0] -75685003.308630
   1:    0    1  -344.847106    EDIAG[1] -75685191.398159

-----------------------------
 NEVPT2 TRANSITION ENERGIES
------------------------------

LOWEST ROOT (ROOT 0, MULT 1) =   -344.847105697 Eh -9383.767 eV

STATE ROOT MULT  DE/a.u.     DE/eV    DE/cm**-1
   1:   0    3   0.000857     0.023    188.1

--------------------------------------------
 NEVPT2 CORRECTION TO THE TRANSITION ENERGY
--------------------------------------------
STATE  ROOT MULT DE/a.u. DE/eV 	DE/cm**-1
   1:    0    3   0.000082      0.002     18.1

   Class     DE/a.u.       DE/eV     DE/cm**-1
   V0_ijab  -0.000006     -0.000      -1.4  (-7.50%)
   Vm1_iab   0.000000      0.000       0.0  (0.00%)
   Vm2_ab    0.000027      0.001       6.0  (33.18%)
   V1_ija    0.000064      0.002      14.1  (78.17%)
   V2_ij     0.000071      0.002      15.5  (85.61%)
   V0_ia     0.000450      0.012      98.7  (545.83%)
   Vm1_a    -0.000055     -0.001     -12.1  (-66.70%)
   V1_i      0.000044      0.001       9.7  (53.65%)


--------------
TIMINGS CASPT2
--------------

Sum of individual times        ...     1781.7 sec (100.0%)

   Integraltransformation      ...     1072.5 sec ( 60.2%)
   Building Fock and alike     ...       45.3 sec (  2.5%)
   Building D2,D1              ...        0.0 sec (  0.0%)
   Building D3                 ...        0.0 sec (  0.0%)
   Building D4                 ...        0.1 sec (  0.0%)
   All densities               ...        0.1 sec (  0.0%)
   Hole Densities              ...        0.0 sec (  0.0%)
   Re-Canonicalization         ...       56.4 sec (  3.2%)
   Classes Vijab               ...        0.4 sec (  0.0%)
   Class Viab                  ...        0.5 sec (  0.0%)
   Class Vab                   ...        0.4 sec (  0.0%)
   Class Vija                  ...        0.2 sec (  0.0%)
   Class Vij                   ...        0.0 sec (  0.0%)
   Class Via                   ...        0.0 sec (  0.0%)
   Class Va                    ...        0.4 sec (  0.0%)
   Class Vi                    ...        0.1 sec (  0.0%)
   All Classes                 ...      607.3 sec ( 34.1%)

-------------------------------------------------------------
 Forming the transition density       ... done in 0.022477 sec
-------------------------------------------------------------



==========================================
CASSCF UV, CD spectra and dipole moments
==========================================
-------------------
ABSORPTION SPECTRUM
-------------------

Center of mass           = (  2.8437,  0.0001, -1.6021)
Nuclear contribution to the dipole moment =  -177.457654,   -0.001282,   48.895021 au

Calculating the dipole integrals                  ... done
Transforming integrals                            ... done
Calculating the Linear Momentum integrals         ... done
Transforming integrals                            ... done
Calculating the Angular Momentum integrals        ... done
Transforming integrals                            ... done

Ground state mult:    1
Ground state block:   1
Ground state root:    0


------------------------------------------------------------------------------
                                 DIPOLE MOMENTS
------------------------------------------------------------------------------
  Root  Block           TX        TY        TZ           |T|
                      (Debye)   (Debye)   (Debye)      (Debye)
------------------------------------------------------------------------------
    0    1           -1.55965   0.00012  -1.95452      2.50053


=====================================================================
CASSCF (CASPT2 diagonal energies) UV, CD spectra and dipole moments
=====================================================================
-------------------
ABSORPTION SPECTRUM
-------------------

Center of mass           = (  2.8437,  0.0001, -1.6021)
Nuclear contribution to the dipole moment =  -177.457654,   -0.001282,   48.895021 au

Calculating the dipole integrals                  ... done
Transforming integrals                            ... done
Calculating the Linear Momentum integrals         ... done
Transforming integrals                            ... done
Calculating the Angular Momentum integrals        ... done
Transforming integrals                            ... done

Ground state mult:    1
Ground state block:   1
Ground state root:    0


------------------------------------------------------------------------------
                                 DIPOLE MOMENTS
------------------------------------------------------------------------------
  Root  Block           TX        TY        TZ           |T|
                      (Debye)   (Debye)   (Debye)      (Debye)
------------------------------------------------------------------------------
    0    1           -1.55965   0.00012  -1.95452      2.50053

--------------
CASSCF TIMINGS
--------------

Total time                       ...     2259.8 sec
Sum of individual times          ...     2256.9 sec ( 99.9%)

Calculation of AO operators
   F(Core) operator              ...       67.9 sec (  3.0%)
   G(Act) operator               ...       63.2 sec (  2.8%)
   J(AO) operators               ...        0.0 sec (  0.0%)
Calculation of MO transformed quantities
   J(MO) operators               ...      340.7 sec ( 15.1%)
   (pq|rs) integrals             ...        0.0 sec (  0.0%)
   AO->MO one electron integrals ...        0.2 sec (  0.0%)
Configuration interaction steps
   CI-setup phase                ...        0.0 sec (  0.0%)
   CI-solution phase             ...        1.7 sec (  0.1%)
   Generation of densities       ...        0.0 sec (  0.0%)
Orbital improvement steps
   Orbital gradient              ...        0.1 sec (  0.0%)
   O(1) converger                ...        0.6 sec (  0.0%)
PT2 
   CASPT2 time                   ...     1781.8 sec ( 78.8%)
Properties                       ...        0.7 sec (  0.0%)
   SOC integral calculation      ...        0.0 sec (  0.0%)
   SSC RMEs (incl. integrals)    ...        0.0 sec (  0.0%)
   SOC RMEs                      ...        0.0 sec (  0.0%)

-------------------------   --------------------
FINAL SINGLE POINT ENERGY      -344.846677197405
-------------------------   --------------------


                            ***************************************
                            *     ORCA property calculations      *
                            ***************************************

                                    ---------------------
                                    Active property flags
                                    ---------------------
   (+) Dipole Moment


------------------------------------------------------------------------------
                       ORCA ELECTRIC PROPERTIES CALCULATION
------------------------------------------------------------------------------

Dipole Moment Calculation                       ... on
Quadrupole Moment Calculation                   ... off
Polarizability Calculation                      ... off
GBWName                                         ... ./AuONMe2_cas4-2_0053.gbw
Electron density file                           ... ./AuONMe2_cas4-2_0053.scfp
The origin for moment calculation is the CENTER OF MASS  = ( 2.843694,  0.000060 -1.602079)

-------------
DIPOLE MOMENT
-------------
                                X             Y             Z
Electronic contribution:    176.83499       0.00132     -49.65970
Nuclear contribution   :   -177.45765      -0.00128      48.89502
                        -----------------------------------------
Total Dipole Moment    :     -0.62267       0.00004      -0.76468
                        -----------------------------------------
Magnitude (a.u.)       :      0.98613
Magnitude (Debye)      :      2.50654



--------------------
Rotational spectrum 
--------------------
 
Rotational constants in cm-1:     0.189830     0.016190     0.015970 
Rotational constants in MHz :  5690.953478   485.370383   478.776838 

 Dipole components along the rotational axes: 
x,y,z [a.u.] :    -0.388593     0.000047    -0.906334 
x,y,z [Debye]:    -0.987724     0.000118    -2.303719 

 

Timings for individual modules:

Sum of individual times         ...     2274.237 sec (=  37.904 min)
GTO integral calculation        ...        3.820 sec (=   0.064 min)   0.2 %
SCF iterations                  ...        3.593 sec (=   0.060 min)   0.2 %
CASSCF iterations               ...     2266.825 sec (=  37.780 min)  99.7 %
                             ****ORCA TERMINATED NORMALLY****
TOTAL RUN TIME: 0 days 0 hours 37 minutes 57 seconds 114 msec
