 vasp.5.4.4.18Apr17-6-g9f103f2a35 (build Mar 28 2019 18:39:28) complex          
  
 executed on             LinuxIFC date 2019.06.27  15:09:20
 running on   40 total cores
 distrk:  each k-point on   20 cores,    2 groups
 distr:  one band on NCORES_PER_BAND=  10 cores,    2 groups


--------------------------------------------------------------------------------------------------------


 INCAR:
 POTCAR:    PAW_PBE Si 05Jan2001                  
 POTCAR:    PAW_PBE H 15Jun2001                   
 POTCAR:    PAW_PBE O 08Apr2002                   
 POTCAR:    PAW_PBE N 08Apr2002                   
 POTCAR:    PAW_PBE C 08Apr2002                   
 POTCAR:    PAW_PBE H 15Jun2001                   

 ----------------------------------------------------------------------------- 
|                                                                             |
|           W    W    AA    RRRRR   N    N  II  N    N   GGGG   !!!           |
|           W    W   A  A   R    R  NN   N  II  NN   N  G    G  !!!           |
|           W    W  A    A  R    R  N N  N  II  N N  N  G       !!!           |
|           W WW W  AAAAAA  RRRRR   N  N N  II  N  N N  G  GGG   !            |
|           WW  WW  A    A  R   R   N   NN  II  N   NN  G    G                |
|           W    W  A    A  R    R  N    N  II  N    N   GGGG   !!!           |
|                                                                             |
|      You have enabled k-point parallelism (KPAR>1).                         |
|      This developmental code was originally  written by Paul Kent at ORNL,  |
|      and carefully double checked in Vienna.                                |
|      GW as well as linear response parallelism added by Martijn Marsman     |
|      and Georg Kresse.                                                      |
|      Carefully verify results versus KPAR=1.                                |
|      Report problems to Paul Kent and Vienna.                               |
|                                                                             |
 ----------------------------------------------------------------------------- 

 POTCAR:    PAW_PBE Si 05Jan2001                  
   VRHFIN =Si: s2p2                                                             
   LEXCH  = PE                                                                  
   EATOM  =   103.0669 eV,    7.5752 Ry                                         
                                                                                
   TITEL  = PAW_PBE Si 05Jan2001                                                
   LULTRA =        F    use ultrasoft PP ?                                      
   IUNSCR =        1    unscreen: 0-lin 1-nonlin 2-no                           
   RPACOR =    1.500    partial core radius                                     
   POMASS =   28.085; ZVAL   =    4.000    mass and valenz                      
   RCORE  =    1.900    outmost cutoff radius                                   
   RWIGS  =    2.480; RWIGS  =    1.312    wigner-seitz radius (au A)           
   ENMAX  =  245.345; ENMIN  =  184.009 eV                                      
   ICORE  =        2    local potential                                         
   LCOR   =        T    correct aug charges                                     
   LPAW   =        T    paw PP                                                  
   EAUG   =  322.069                                                            
   DEXC   =    0.000                                                            
   RMAX   =    1.950    core radius for proj-oper                               
   RAUG   =    1.300    factor for augmentation sphere                          
   RDEP   =    1.993    radius for radial grids                                 
   RDEPT  =    1.837    core radius for aug-charge                              
                                                                                
   Atomic configuration                                                         
    6 entries                                                                   
     n  l   j            E        occ.                                          
     1  0  0.50     -1785.8828   2.0000                                         
     2  0  0.50      -139.4969   2.0000                                         
     2  1  1.50       -95.5546   6.0000                                         
     3  0  0.50       -10.8127   2.0000                                         
     3  1  0.50        -4.0811   2.0000                                         
     3  2  1.50        -4.0817   0.0000                                         
   Description                                                                  
     l       E           TYP  RCUT    TYP  RCUT                                 
     0    -10.8127223     23  1.900                                             
     0     -7.6451159     23  1.900                                             
     1     -4.0811372     23  1.900                                             
     1      2.4879257     23  1.900                                             
     2     -4.0817478      7  1.900                                             
  local pseudopotential read in
  partial core-charges read in
  partial kinetic energy density read in
  atomic valenz-charges read in
  non local Contribution for L=           0  read in
    real space projection operators read in
  non local Contribution for L=           0  read in
    real space projection operators read in
  non local Contribution for L=           1  read in
    real space projection operators read in
  non local Contribution for L=           1  read in
    real space projection operators read in
    PAW grid and wavefunctions read in
 
   number of l-projection  operators is LMAX  =           4
   number of lm-projection operators is LMMAX =           8
 
 POTCAR:    PAW_PBE H 15Jun2001                   
   VRHFIN =H: ultrasoft test                                                    
   LEXCH  = PE                                                                  
   EATOM  =    12.4884 eV,    0.9179 Ry                                         
                                                                                
   TITEL  = PAW_PBE H 15Jun2001                                                 
   LULTRA =        F    use ultrasoft PP ?                                      
   IUNSCR =        0    unscreen: 0-lin 1-nonlin 2-no                           
   RPACOR =    0.000    partial core radius                                     
   POMASS =    1.000; ZVAL   =    1.000    mass and valenz                      
   RCORE  =    1.100    outmost cutoff radius                                   
   RWIGS  =    0.700; RWIGS  =    0.370    wigner-seitz radius (au A)           
   ENMAX  =  250.000; ENMIN  =  200.000 eV                                      
   RCLOC  =    0.701    cutoff for local pot                                    
   LCOR   =        T    correct aug charges                                     
   LPAW   =        T    paw PP                                                  
   EAUG   =  400.000                                                            
   RMAX   =    1.123    core radius for proj-oper                               
   RAUG   =    1.200    factor for augmentation sphere                          
   RDEP   =    1.112    radius for radial grids                                 
   RDEPT  =    0.926    core radius for aug-charge                              
                                                                                
   Atomic configuration                                                         
    2 entries                                                                   
     n  l   j            E        occ.                                          
     1  0  0.50        -6.4927   1.0000                                         
     2  1  0.50        -3.4015   0.0000                                         
   Description                                                                  
     l       E           TYP  RCUT    TYP  RCUT                                 
     0     -6.4927494     23  1.100                                             
     0      6.8029130     23  1.100                                             
     1     -4.0817478     23  1.100                                             
  local pseudopotential read in
  atomic valenz-charges read in
  non local Contribution for L=           0  read in
    real space projection operators read in
  non local Contribution for L=           0  read in
    real space projection operators read in
  non local Contribution for L=           1  read in
    real space projection operators read in
    PAW grid and wavefunctions read in
 
   number of l-projection  operators is LMAX  =           3
   number of lm-projection operators is LMMAX =           5
 
 POTCAR:    PAW_PBE O 08Apr2002                   
   VRHFIN =O: s2p4                                                              
   LEXCH  = PE                                                                  
   EATOM  =   432.3788 eV,   31.7789 Ry                                         
                                                                                
   TITEL  = PAW_PBE O 08Apr2002                                                 
   LULTRA =        F    use ultrasoft PP ?                                      
   IUNSCR =        1    unscreen: 0-lin 1-nonlin 2-no                           
   RPACOR =    1.200    partial core radius                                     
   POMASS =   16.000; ZVAL   =    6.000    mass and valenz                      
   RCORE  =    1.520    outmost cutoff radius                                   
   RWIGS  =    1.550; RWIGS  =    0.820    wigner-seitz radius (au A)           
   ENMAX  =  400.000; ENMIN  =  300.000 eV                                      
   ICORE  =        2    local potential                                         
   LCOR   =        T    correct aug charges                                     
   LPAW   =        T    paw PP                                                  
   EAUG   =  605.392                                                            
   DEXC   =    0.000                                                            
   RMAX   =    1.553    core radius for proj-oper                               
   RAUG   =    1.300    factor for augmentation sphere                          
   RDEP   =    1.550    radius for radial grids                                 
   RDEPT  =    1.329    core radius for aug-charge                              
                                                                                
   Atomic configuration                                                         
    4 entries                                                                   
     n  l   j            E        occ.                                          
     1  0  0.50      -514.6923   2.0000                                         
     2  0  0.50       -23.9615   2.0000                                         
     2  1  0.50        -9.0305   4.0000                                         
     3  2  1.50        -9.5241   0.0000                                         
   Description                                                                  
     l       E           TYP  RCUT    TYP  RCUT                                 
     0    -23.9615318     23  1.200                                             
     0     -9.5240782     23  1.200                                             
     1     -9.0304911     23  1.520                                             
     1      8.1634956     23  1.520                                             
     2     -9.5240782      7  1.500                                             
  local pseudopotential read in
  partial core-charges read in
  partial kinetic energy density read in
  kinetic energy density of atom read in
  atomic valenz-charges read in
  non local Contribution for L=           0  read in
    real space projection operators read in
  non local Contribution for L=           0  read in
    real space projection operators read in
  non local Contribution for L=           1  read in
    real space projection operators read in
  non local Contribution for L=           1  read in
    real space projection operators read in
    PAW grid and wavefunctions read in
 
   number of l-projection  operators is LMAX  =           4
   number of lm-projection operators is LMMAX =           8
 
 POTCAR:    PAW_PBE N 08Apr2002                   
   VRHFIN =N: s2p3                                                              
   LEXCH  = PE                                                                  
   EATOM  =   264.5486 eV,   19.4438 Ry                                         
                                                                                
   TITEL  = PAW_PBE N 08Apr2002                                                 
   LULTRA =        F    use ultrasoft PP ?                                      
   IUNSCR =        1    unscreen: 0-lin 1-nonlin 2-no                           
   RPACOR =    1.200    partial core radius                                     
   POMASS =   14.001; ZVAL   =    5.000    mass and valenz                      
   RCORE  =    1.500    outmost cutoff radius                                   
   RWIGS  =    1.400; RWIGS  =    0.741    wigner-seitz radius (au A)           
   ENMAX  =  400.000; ENMIN  =  300.000 eV                                      
   ICORE  =        2    local potential                                         
   LCOR   =        T    correct aug charges                                     
   LPAW   =        T    paw PP                                                  
   EAUG   =  627.112                                                            
   DEXC   =    0.000                                                            
   RMAX   =    1.529    core radius for proj-oper                               
   RAUG   =    1.300    factor for augmentation sphere                          
   RDEP   =    1.514    radius for radial grids                                 
   RDEPT  =    1.338    core radius for aug-charge                              
                                                                                
   Atomic configuration                                                         
    4 entries                                                                   
     n  l   j            E        occ.                                          
     1  0  0.50      -384.7179   2.0000                                         
     2  0  0.50       -18.5828   2.0000                                         
     2  1  0.50        -7.0898   3.0000                                         
     3  2  1.50        -6.8029   0.0000                                         
   Description                                                                  
     l       E           TYP  RCUT    TYP  RCUT                                 
     0    -18.5828119     23  1.200                                             
     0    -13.5018863     23  1.200                                             
     1     -7.0897853     23  1.500                                             
     1      9.5240782     23  1.500                                             
     2     -6.8029130      7  1.500                                             
  local pseudopotential read in
  partial core-charges read in
  partial kinetic energy density read in
  atomic valenz-charges read in
  non local Contribution for L=           0  read in
    real space projection operators read in
  non local Contribution for L=           0  read in
    real space projection operators read in
  non local Contribution for L=           1  read in
    real space projection operators read in
  non local Contribution for L=           1  read in
    real space projection operators read in
    PAW grid and wavefunctions read in
 
   number of l-projection  operators is LMAX  =           4
   number of lm-projection operators is LMMAX =           8
 
 POTCAR:    PAW_PBE C 08Apr2002                   
   VRHFIN =C: s2p2                                                              
   LEXCH  = PE                                                                  
   EATOM  =   147.1560 eV,   10.8157 Ry                                         
                                                                                
   TITEL  = PAW_PBE C 08Apr2002                                                 
   LULTRA =        F    use ultrasoft PP ?                                      
   IUNSCR =        1    unscreen: 0-lin 1-nonlin 2-no                           
   RPACOR =    1.200    partial core radius                                     
   POMASS =   12.011; ZVAL   =    4.000    mass and valenz                      
   RCORE  =    1.500    outmost cutoff radius                                   
   RWIGS  =    1.630; RWIGS  =    0.863    wigner-seitz radius (au A)           
   ENMAX  =  400.000; ENMIN  =  300.000 eV                                      
   ICORE  =        2    local potential                                         
   LCOR   =        T    correct aug charges                                     
   LPAW   =        T    paw PP                                                  
   EAUG   =  644.873                                                            
   DEXC   =    0.000                                                            
   RMAX   =    1.529    core radius for proj-oper                               
   RAUG   =    1.300    factor for augmentation sphere                          
   RDEP   =    1.501    radius for radial grids                                 
   RDEPT  =    1.300    core radius for aug-charge                              
                                                                                
   Atomic configuration                                                         
    4 entries                                                                   
     n  l   j            E        occ.                                          
     1  0  0.50      -273.3789   2.0000                                         
     2  0  0.50       -13.7508   2.0000                                         
     2  1  0.50        -5.2854   2.0000                                         
     3  2  1.50        -5.4423   0.0000                                         
   Description                                                                  
     l       E           TYP  RCUT    TYP  RCUT                                 
     0    -13.7508458     23  1.200                                             
     0     -8.2022199     23  1.200                                             
     1     -5.2854383     23  1.500                                             
     1     34.0145650     23  1.500                                             
     2     -5.4423304      7  1.500                                             
  local pseudopotential read in
  partial core-charges read in
  partial kinetic energy density read in
  atomic valenz-charges read in
  non local Contribution for L=           0  read in
    real space projection operators read in
  non local Contribution for L=           0  read in
    real space projection operators read in
  non local Contribution for L=           1  read in
    real space projection operators read in
  non local Contribution for L=           1  read in
    real space projection operators read in
    PAW grid and wavefunctions read in
 
   number of l-projection  operators is LMAX  =           4
   number of lm-projection operators is LMMAX =           8
 
 POTCAR:    PAW_PBE H 15Jun2001                   
   VRHFIN =H: ultrasoft test                                                    
   LEXCH  = PE                                                                  
   EATOM  =    12.4884 eV,    0.9179 Ry                                         
                                                                                
   TITEL  = PAW_PBE H 15Jun2001                                                 
   LULTRA =        F    use ultrasoft PP ?                                      
   IUNSCR =        0    unscreen: 0-lin 1-nonlin 2-no                           
   RPACOR =    0.000    partial core radius                                     
   POMASS =    1.000; ZVAL   =    1.000    mass and valenz                      
   RCORE  =    1.100    outmost cutoff radius                                   
   RWIGS  =    0.700; RWIGS  =    0.370    wigner-seitz radius (au A)           
   ENMAX  =  250.000; ENMIN  =  200.000 eV                                      
   RCLOC  =    0.701    cutoff for local pot                                    
   LCOR   =        T    correct aug charges                                     
   LPAW   =        T    paw PP                                                  
   EAUG   =  400.000                                                            
   RMAX   =    1.123    core radius for proj-oper                               
   RAUG   =    1.200    factor for augmentation sphere                          
   RDEP   =    1.112    radius for radial grids                                 
   RDEPT  =    0.926    core radius for aug-charge                              
                                                                                
   Atomic configuration                                                         
    2 entries                                                                   
     n  l   j            E        occ.                                          
     1  0  0.50        -6.4927   1.0000                                         
     2  1  0.50        -3.4015   0.0000                                         
   Description                                                                  
     l       E           TYP  RCUT    TYP  RCUT                                 
     0     -6.4927494     23  1.100                                             
     0      6.8029130     23  1.100                                             
     1     -4.0817478     23  1.100                                             
  local pseudopotential read in
  atomic valenz-charges read in
  non local Contribution for L=           0  read in
    real space projection operators read in
  non local Contribution for L=           0  read in
    real space projection operators read in
  non local Contribution for L=           1  read in
    real space projection operators read in
    PAW grid and wavefunctions read in
 
   number of l-projection  operators is LMAX  =           3
   number of lm-projection operators is LMMAX =           5
 
 Optimization of the real space projectors (new method)

 maximal supplied QI-value         = 19.84
 optimisation between [QCUT,QGAM] = [ 10.12, 20.44] = [ 28.68,116.96] Ry 
 Optimized for a Real-space Cutoff    1.38 Angstroem

   l    n(q)    QCUT    max X(q) W(low)/X(q) W(high)/X(q)  e(spline) 
   0      8    10.119   159.560    0.58E-04    0.11E-03    0.54E-07
   0      8    10.119   115.863    0.56E-04    0.11E-03    0.54E-07
   1      8    10.119    88.339    0.22E-03    0.17E-03    0.19E-06
   1      8    10.119    48.592    0.22E-03    0.17E-03    0.18E-06
 Optimization of the real space projectors (new method)

 maximal supplied QI-value         = 34.20
 optimisation between [QCUT,QGAM] = [  9.92, 20.18] = [ 27.55,114.04] Ry 
 Optimized for a Real-space Cutoff    1.34 Angstroem

   l    n(q)    QCUT    max X(q) W(low)/X(q) W(high)/X(q)  e(spline) 
   0      8     9.919    19.460    0.16E-03    0.20E-03    0.36E-06
   0      8     9.919    12.209    0.16E-03    0.20E-03    0.35E-06
   1      8     9.919     4.655    0.19E-03    0.46E-03    0.40E-06
 Optimization of the real space projectors (new method)

 maximal supplied QI-value         = 24.76
 optimisation between [QCUT,QGAM] = [ 10.15, 20.30] = [ 28.85,115.39] Ry 
 Optimized for a Real-space Cutoff    1.51 Angstroem

   l    n(q)    QCUT    max X(q) W(low)/X(q) W(high)/X(q)  e(spline) 
   0      9    10.150    20.381    0.17E-03    0.18E-03    0.41E-06
   0      9    10.150    15.268    0.18E-03    0.20E-03    0.43E-06
   1      9    10.150     5.964    0.16E-03    0.20E-03    0.36E-06
   1      9    10.150     5.382    0.13E-03    0.16E-03    0.33E-06
 Optimization of the real space projectors (new method)

 maximal supplied QI-value         = 25.13
 optimisation between [QCUT,QGAM] = [ 10.05, 20.36] = [ 28.30,116.06] Ry 
 Optimized for a Real-space Cutoff    1.70 Angstroem

   l    n(q)    QCUT    max X(q) W(low)/X(q) W(high)/X(q)  e(spline) 
   0     10    10.053    79.467    0.61E-04    0.98E-04    0.61E-06
   0     10    10.053    66.151    0.60E-04    0.98E-04    0.61E-06
   1     10    10.053     8.350    0.17E-03    0.71E-03    0.45E-05
   1     10    10.053     5.531    0.18E-03    0.77E-03    0.49E-05
 Optimization of the real space projectors (new method)

 maximal supplied QI-value         = 25.13
 optimisation between [QCUT,QGAM] = [ 10.05, 20.36] = [ 28.30,116.06] Ry 
 Optimized for a Real-space Cutoff    1.51 Angstroem

   l    n(q)    QCUT    max X(q) W(low)/X(q) W(high)/X(q)  e(spline) 
   0      9    10.053   115.676    0.19E-03    0.21E-03    0.38E-06
   0      9    10.053    87.132    0.19E-03    0.21E-03    0.38E-06
   1      9    10.053     4.429    0.87E-04    0.11E-03    0.39E-06
   1      9    10.053     2.733    0.59E-04    0.62E-04    0.43E-06
 Optimization of the real space projectors (new method)

 maximal supplied QI-value         = 34.20
 optimisation between [QCUT,QGAM] = [  9.92, 20.18] = [ 27.55,114.04] Ry 
 Optimized for a Real-space Cutoff    1.34 Angstroem

   l    n(q)    QCUT    max X(q) W(low)/X(q) W(high)/X(q)  e(spline) 
   0      8     9.919    19.460    0.16E-03    0.20E-03    0.36E-06
   0      8     9.919    12.209    0.16E-03    0.20E-03    0.35E-06
   1      8     9.919     4.655    0.19E-03    0.46E-03    0.40E-06
  PAW_PBE Si 05Jan2001                  :
 energy of atom  1       EATOM= -103.0669
 kinetic energy error for atom=    0.0012 (will be added to EATOM!!)
  PAW_PBE H 15Jun2001                   :
 energy of atom  2       EATOM=  -12.4884
 kinetic energy error for atom=    0.0098 (will be added to EATOM!!)
  PAW_PBE O 08Apr2002                   :
 energy of atom  3       EATOM= -432.3788
 kinetic energy error for atom=    0.1156 (will be added to EATOM!!)
  PAW_PBE N 08Apr2002                   :
 energy of atom  4       EATOM= -264.5486
 kinetic energy error for atom=    0.0736 (will be added to EATOM!!)
  PAW_PBE C 08Apr2002                   :
 energy of atom  5       EATOM= -147.1560
 kinetic energy error for atom=    0.0288 (will be added to EATOM!!)
  PAW_PBE H 15Jun2001                   :
 energy of atom  6       EATOM=  -12.4884
 kinetic energy error for atom=    0.0098 (will be added to EATOM!!)
 
 
 POSCAR: Si  H  O  N  C  H                       
  positions in direct lattice
  velocities in cartesian coordinates
 exchange correlation table for  LEXCH =        8
   RHO(1)=    0.500       N(1)  =     2000
   RHO(2)=  100.500       N(2)  =     4000

 VTST: version 3.1, (03/28/14)

 CHAIN: initializing optimizer
 
 OPT: Using Conjugate-Gradient optimizer
 OPT: CG, Init
 OPT: CG, FDSTEP      0.005000
 OPT: CG, MAXMOVE      0.200000
 
 CHAIN: Read ICHAIN            0
 
 POSCAR: Si  H  O  N  C  H                       
  positions in direct lattice
  velocities in cartesian coordinates
 


--------------------------------------------------------------------------------------------------------


 ion  position               nearest neighbor table
   1  0.000  0.000  0.031- 117 1.48 103 1.48  22 2.35  17 2.35
   2  0.500  0.000  0.031- 118 1.48 104 1.48  18 2.35  21 2.35
   3  0.000  0.250  0.031-  99 1.48  97 1.48  26 2.35  19 2.35
   4  0.500  0.250  0.031- 100 1.48  98 1.48  20 2.35  25 2.35
   5  0.250  0.000  0.031- 127 1.48 105 1.48  21 2.35  17 2.35
   6  0.750  0.000  0.031- 128 1.48 106 1.48  22 2.35  18 2.35
   7  0.000  0.500  0.031- 119 1.48 101 1.48  30 2.35  23 2.35
   8  0.500  0.500  0.031- 120 1.48 102 1.48  24 2.35  29 2.35
   9  0.250  0.250  0.031- 109 1.48 107 1.48  25 2.35  19 2.35
  10  0.750  0.250  0.031- 110 1.48 108 1.48  26 2.35  20 2.35
  11  0.000  0.750  0.031- 115 1.48 113 1.48  32 2.35  27 2.35
  12  0.500  0.750  0.031- 116 1.48 114 1.48  28 2.35  31 2.35
  13  0.250  0.500  0.031- 121 1.48 111 1.48  29 2.35  23 2.35
  14  0.750  0.500  0.031- 122 1.48 112 1.48  30 2.35  24 2.35
  15  0.250  0.750  0.031- 125 1.48 123 1.48  31 2.35  27 2.35
  16  0.750  0.750  0.031- 126 1.48 124 1.48  32 2.35  28 2.35
  17  0.125  0.000  0.075-  33 2.30   1 2.35   5 2.35  43 2.38
  18  0.625  0.000  0.075-  34 2.30   2 2.35   6 2.35  44 2.38
  19  0.125  0.250  0.075-  33 2.32   3 2.35   9 2.35  35 2.38
  20  0.625  0.250  0.075-  34 2.32   4 2.35  10 2.35  36 2.39
  21  0.375  0.000  0.075-  37 2.32   5 2.35   2 2.35  47 2.40
  22  0.875  0.000  0.075-  38 2.32   1 2.35   6 2.35  48 2.40
  23  0.125  0.500  0.075-  39 2.32   7 2.35  13 2.35  35 2.39
  24  0.625  0.500  0.075-  40 2.32   8 2.35  14 2.35  36 2.39
  25  0.375  0.250  0.075-  37 2.30   9 2.35   4 2.35  41 2.38
  26  0.875  0.250  0.075-  38 2.30   3 2.35  10 2.35  42 2.38
  27  0.125  0.750  0.075-  39 2.31  11 2.35  15 2.35  43 2.38
  28  0.625  0.750  0.075-  40 2.31  12 2.35  16 2.35  44 2.38
  29  0.375  0.500  0.075-  45 2.31  13 2.35   8 2.35  41 2.38
  30  0.875  0.500  0.075-  46 2.31   7 2.35  14 2.35  42 2.38
  31  0.375  0.750  0.075-  45 2.32  15 2.35  12 2.35  47 2.40
  32  0.875  0.750  0.075-  46 2.32  11 2.35  16 2.35  48 2.40
  33  0.125  0.124  0.117-  17 2.30  19 2.32  53 2.32  49 2.32
  34  0.625  0.124  0.117-  18 2.30  20 2.32  50 2.32  54 2.32
  35  0.124  0.375  0.122-  57 2.37  19 2.38  52 2.38  23 2.39
  36  0.626  0.375  0.122-  51 2.37  58 2.38  20 2.39  24 2.39
  37  0.375  0.126  0.117-  25 2.30  21 2.32  53 2.32  50 2.32
  38  0.875  0.126  0.117-  26 2.30  22 2.32  54 2.32  49 2.32
  39  0.126  0.626  0.117-  27 2.31  23 2.32  61 2.32  55 2.33
  40  0.624  0.625  0.118-  28 2.31  24 2.32  56 2.32  62 2.33
  41  0.375  0.375  0.121-  57 2.37  29 2.38  51 2.38  25 2.38
  42  0.875  0.375  0.121-  52 2.38  58 2.38  30 2.38  26 2.38
  43  0.125  0.875  0.121-  63 2.37  59 2.38  17 2.38  27 2.38
  44  0.625  0.875  0.121-  60 2.37  18 2.38  64 2.38  28 2.38
  45  0.375  0.625  0.118-  29 2.31  31 2.32  61 2.33  56 2.33
  46  0.875  0.624  0.117-  30 2.31  32 2.32  62 2.33  55 2.33
  47  0.375  0.875  0.122-  63 2.39  60 2.39  21 2.40  31 2.40
  48  0.875  0.875  0.122-  59 2.38  64 2.38  32 2.40  22 2.40
  49  1.000  0.125  0.160-  38 2.32  33 2.32  65 2.38  68 2.38  83 3.11  86 3.11
  50  0.500  0.125  0.160-  37 2.32  34 2.32  67 2.37  66 2.37  85 3.11  84 3.12
  51  0.500  0.373  0.167-  71 2.36  36 2.37  67 2.38  41 2.38
  52  0.999  0.375  0.168-  42 2.38  68 2.38  35 2.38  72 2.38
  53  0.250  0.125  0.160-  37 2.32  33 2.32  73 2.37  69 2.37  85 3.11  83 3.12
  54  0.750  0.125  0.160-  38 2.32  34 2.32  74 2.38  70 2.38  84 3.11  86 3.11
  55  0.000  0.626  0.160-  46 2.33  39 2.33  75 2.38  72 2.38  87 3.08  96 3.11
  56  0.500  0.628  0.161-  40 2.32  45 2.33  76 2.35  71 2.39  88 3.13
  57  0.250  0.373  0.167-  77 2.36  35 2.37  41 2.37  73 2.38
  58  0.751  0.375  0.168-  42 2.38  74 2.38  36 2.38  78 2.38
  59  0.001  0.875  0.168-  43 2.38  65 2.38  75 2.38  48 2.38
  60  0.502  0.875  0.168-  44 2.37  76 2.37  66 2.38  47 2.39
  61  0.250  0.628  0.161-  39 2.32  45 2.33  79 2.35  77 2.39  87 3.14
  62  0.750  0.625  0.160-  46 2.33  40 2.33  80 2.38  78 2.38  88 3.09  96 3.12
  63  0.248  0.875  0.168-  43 2.37  79 2.37  69 2.38  47 2.39
  64  0.749  0.875  0.168-  44 2.38  70 2.38  80 2.38  48 2.38
  65  0.008  0.006  0.210-  86 2.34  49 2.38  59 2.38  81 2.39
  66  0.508  0.006  0.209-  85 2.34  50 2.37  60 2.38  82 2.39
  67  0.492  0.244  0.210-  84 2.34  50 2.37  51 2.38  89 2.39
  68  0.992  0.244  0.210-  83 2.34  49 2.38  52 2.38  90 2.39
  69  0.242  0.006  0.209-  85 2.34  53 2.37  63 2.38  81 2.39
  70  0.742  0.006  0.210-  86 2.34  54 2.38  64 2.38  82 2.39
  71  0.498  0.503  0.208-  88 2.33  93 2.34  51 2.36  56 2.39
  72  0.991  0.506  0.210-  87 2.33  94 2.38  55 2.38  52 2.38
  73  0.258  0.244  0.209-  83 2.34  53 2.37  57 2.38  89 2.39
  74  0.758  0.244  0.210-  84 2.34  54 2.38  58 2.38  90 2.39
  75  0.008  0.745  0.210-  96 2.34  55 2.38  59 2.38  91 2.39
  76  0.506  0.745  0.210-  95 2.35  56 2.35  60 2.37  92 2.39
  77  0.250  0.503  0.207-  93 2.33  87 2.33  57 2.36  61 2.39
  78  0.758  0.506  0.210-  88 2.33  62 2.38  58 2.38  94 2.38
  79  0.244  0.745  0.210-  61 2.35  95 2.35  63 2.37  91 2.39
  80  0.742  0.744  0.210-  96 2.34  62 2.38  64 2.38  92 2.39
  81  0.125  0.041  0.258-  83 2.37  65 2.39  69 2.39
  82  0.625  0.041  0.258-  84 2.37  66 2.39  70 2.39
  83  0.125  0.188  0.234-  73 2.34  68 2.34  81 2.37  49 3.11  53 3.12
  84  0.625  0.187  0.234-  67 2.34  74 2.34  82 2.37  54 3.11  50 3.12
  85  0.375  0.063  0.234-  69 2.34  66 2.34  89 2.38  53 3.11  50 3.11
  86  0.875  0.062  0.234-  70 2.34  65 2.34  90 2.37  54 3.11  49 3.11
  87  0.122  0.566  0.234-  77 2.33  72 2.33  91 2.36  55 3.08  61 3.14
  88  0.627  0.566  0.235-  71 2.33  78 2.33  92 2.36  62 3.09  56 3.13
  89  0.375  0.210  0.258-  85 2.38  67 2.39  73 2.39
  90  0.875  0.209  0.258-  86 2.37  68 2.39  74 2.39
  91  0.126  0.712  0.258-  87 2.36  75 2.39  79 2.39
  92  0.624  0.712  0.258-  88 2.36  80 2.39  76 2.39
  93  0.373  0.554  0.243- 146 1.89  77 2.33  71 2.34  95 2.34 145 2.59
  94  0.875  0.541  0.258-  96 2.37  72 2.38  78 2.38
  95  0.375  0.707  0.245- 145 1.92  93 2.34  76 2.35  79 2.35
  96  0.875  0.688  0.234-  75 2.34  80 2.34  94 2.37  55 3.11  62 3.12
  97  0.000  0.171  0.003-   3 1.48
  98  0.500  0.171  0.003-   4 1.48
  99  0.000  0.329  0.003-   3 1.48
 100  0.500  0.329  0.003-   4 1.48
 101  0.000  0.421  0.003-   7 1.48
 102  0.500  0.421  0.003-   8 1.48
 103  0.000  0.079  0.003-   1 1.48
 104  0.500  0.079  0.003-   2 1.48
 105  0.250  0.079  0.003-   5 1.48
 106  0.750  0.079  0.003-   6 1.48
 107  0.250  0.171  0.003-   9 1.48
 108  0.750  0.171  0.003-  10 1.48
 109  0.250  0.329  0.003-   9 1.48
 110  0.750  0.329  0.003-  10 1.48
 111  0.250  0.421  0.003-  13 1.48
 112  0.750  0.421  0.003-  14 1.48
 113  0.000  0.671  0.003-  11 1.48
 114  0.500  0.671  0.003-  12 1.48
 115  0.000  0.829  0.003-  11 1.48
 116  0.500  0.829  0.003-  12 1.48
 117  0.000  0.921  0.003-   1 1.48
 118  0.500  0.921  0.003-   2 1.48
 119  0.000  0.579  0.003-   7 1.48
 120  0.500  0.579  0.003-   8 1.48
 121  0.250  0.579  0.003-  13 1.48
 122  0.750  0.579  0.003-  14 1.48
 123  0.250  0.671  0.003-  15 1.48
 124  0.750  0.671  0.003-  16 1.48
 125  0.250  0.829  0.003-  15 1.48
 126  0.750  0.829  0.003-  16 1.48
 127  0.250  0.921  0.003-   5 1.48
 128  0.750  0.921  0.003-   6 1.48
 129  0.655  0.572  0.532- 139 1.37 138 1.43
 130  0.797  0.551  0.617- 152 1.35 150 1.45
 131  0.648  0.818  0.455- 153 1.22
 132  0.914  0.545  0.570- 152 1.22
 133  0.567  0.816  0.518- 153 1.35 151 1.45
 134  0.757  0.712  0.587- 135 1.33 154 1.35
 135  0.705  0.766  0.565- 134 1.33 155 1.34
 136  0.784  0.736  0.501- 137 1.32 155 1.35
 137  0.833  0.681  0.523- 136 1.32 154 1.35
 138  0.588  0.577  0.564- 157 1.10 158 1.10 159 1.10 129 1.43
 139  0.629  0.581  0.490- 156 1.09 140 1.34 129 1.37
 140  0.548  0.595  0.474- 160 1.09 139 1.34 148 1.47
 141  0.448  0.559  0.408- 162 1.10 142 1.51 149 1.51 148 1.52
 142  0.450  0.509  0.366- 171 1.10 170 1.10 141 1.51 143 1.55
 143  0.363  0.517  0.341- 169 1.10 168 1.10 146 1.50 142 1.55
 144  0.375  0.726  0.345- 167 1.10 166 1.11 145 1.51 147 1.56
 145  0.372  0.670  0.305- 146 1.37 144 1.51  95 1.92  93 2.59
 146  0.368  0.581  0.304- 145 1.37 143 1.50  93 1.89
 147  0.462  0.716  0.372- 164 1.10 165 1.10 149 1.51 144 1.56
 148  0.529  0.603  0.427- 163 1.09 140 1.47 141 1.52 149 1.52
 149  0.453  0.657  0.411- 161 1.10 141 1.51 147 1.51 148 1.52
 150  0.829  0.472  0.638- 173 1.09 172 1.10 174 1.10 130 1.45
 151  0.495  0.851  0.494- 175 1.09 176 1.10 177 1.10 133 1.45
 152  0.847  0.579  0.583- 132 1.22 130 1.35 154 1.50
 153  0.640  0.803  0.494- 131 1.22 133 1.35 155 1.50
 154  0.808  0.659  0.563- 134 1.35 137 1.35 152 1.50
 155  0.711  0.764  0.522- 135 1.34 136 1.35 153 1.50
 156  0.686  0.577  0.468- 139 1.09
 157  0.620  0.570  0.596- 138 1.10
 158  0.540  0.523  0.560- 138 1.10
 159  0.553  0.640  0.563- 138 1.10
 160  0.493  0.598  0.497- 140 1.09
 161  0.412  0.685  0.437- 149 1.10
 162  0.405  0.529  0.433- 141 1.10
 163  0.586  0.603  0.406- 148 1.09
 164  0.513  0.692  0.350- 147 1.10
 165  0.484  0.781  0.382- 147 1.10
 166  0.320  0.709  0.367- 144 1.11
 167  0.366  0.795  0.336- 144 1.10
 168  0.311  0.538  0.364- 143 1.10
 169  0.343  0.453  0.328- 143 1.10
 170  0.464  0.440  0.373- 142 1.10
 171  0.504  0.532  0.345- 142 1.10
 172  0.894  0.483  0.651- 150 1.10
 173  0.781  0.457  0.663- 150 1.09
 174  0.832  0.419  0.614- 150 1.10
 175  0.441  0.857  0.517- 151 1.09
 176  0.477  0.807  0.467- 151 1.10
 177  0.511  0.916  0.480- 151 1.10
 

IMPORTANT INFORMATION: All symmetrisations will be switched off!
NOSYMM: (Re-)initialisation of all symmetry stuff for point group C_1.

 
 
 KPOINTS: K-Points                                

Automatic generation of k-mesh.
Space group operators:
 irot       det(A)        alpha          n_x          n_y          n_z        tau_x        tau_y        tau_z
    1     1.000000     0.000000     1.000000     0.000000     0.000000     0.000000     0.000000     0.000000
 
 Subroutine IBZKPT returns following result:
 ===========================================
 
 Found      4 irreducible k-points:
 
 Following reciprocal coordinates:
            Coordinates               Weight
  0.000000  0.000000  0.000000      1.000000
  0.500000  0.000000  0.000000      1.000000
  0.000000  0.500000  0.000000      1.000000
  0.500000  0.500000  0.000000      1.000000
 
 Following cartesian coordinates:
            Coordinates               Weight
  0.000000  0.000000  0.000000      1.000000
  0.032628  0.000000  0.000000      1.000000
  0.000000  0.032628  0.000000      1.000000
  0.032628  0.032628  0.000000      1.000000
 


--------------------------------------------------------------------------------------------------------




 Dimension of arrays:
   k-points           NKPTS =      4   k-points in BZ     NKDIM =      4   number of bands    NBANDS=    370
   number of dos      NEDOS =    301   number of ions     NIONS =    177
   non local maximal  LDIM  =      4   non local SUM 2l+1 LMDIM =      8
   total plane-waves  NPLWV = ******
   max r-space proj   IRMAX =   5747   max aug-charges    IRDMAX=   9489
   dimension x,y,z NGX =   100 NGY =  100 NGZ =  200
   dimension x,y,z NGXF=   200 NGYF=  200 NGZF=  400
   support grid    NGXF=   200 NGYF=  200 NGZF=  400
   ions per type =              96  32   5   4  18  22
   NGX,Y,Z   is equivalent  to a cutoff of  10.85, 10.85, 10.85 a.u.
   NGXF,Y,Z  is equivalent  to a cutoff of  21.70, 21.70, 21.70 a.u.

 SYSTEM =  Name                                    
 POSCAR =  Si  H  O  N  C  H                       

 Startparameter for this run:
   NWRITE =      2    write-flag & timer
   PREC   = accura    normal or accurate (medium, high low for compatibility)
   ISTART =      0    job   : 0-new  1-cont  2-samecut
   ICHARG =      2    charge: 1-file 2-atom 10-const
   ISPIN  =      1    spin polarized calculation?
   LNONCOLLINEAR =      F non collinear calculations
   LSORBIT =      F    spin-orbit coupling
   INIWAV =      1    electr: 0-lowe 1-rand  2-diag
   LASPH  =      F    aspherical Exc in radial PAW
   METAGGA=      F    non-selfconsistent MetaGGA calc.

 Electronic Relaxation 1
   ENCUT  =  400.0 eV  29.40 Ry    5.42 a.u.  24.99 24.99 49.98*2*pi/ulx,y,z
   ENINI  =  400.0     initial cutoff
   ENAUG  =  644.9 eV  augmentation charge cutoff
   NELM   =    100;   NELMIN=  5; NELMDL=-15     # of ELM steps 
   EDIFF  = 0.1E-05   stopping-criterion for ELM
   LREAL  =      T    real-space projection
   NLSPLINE    = F    spline interpolate recip. space projectors
   LCOMPAT=      F    compatible to vasp.4.4
   GGA_COMPAT  = T    GGA compatible to vasp.4.4-vasp.4.6
   LMAXPAW     = -100 max onsite density
   LMAXMIX     =    2 max onsite mixed and CHGCAR
   VOSKOWN=      0    Vosko Wilk Nusair interpolation
   ROPT   =   -0.00025  -0.00025  -0.00025  -0.00025
   ROPT   =   -0.00025  -0.00025
 Ionic relaxation
   EDIFFG = -.1E-01   stopping-criterion for IOM
   NSW    =      0    number of steps for IOM
   NBLOCK =      1;   KBLOCK =      1    inner block; outer block 
   IBRION =     -1    ionic relax: 0-MD 1-quasi-New 2-CG
   NFREE  =     10    steps in history (QN), initial steepest desc. (CG)
   ISIF   =      2    stress and relaxation
   IWAVPR =     10    prediction:  0-non 1-charg 2-wave 3-comb
   ISYM   =      0    0-nonsym 1-usesym 2-fastsym
   LCORR  =      T    Harris-Foulkes like correction to forces

   POTIM  = 0.0000    time-step for ionic-motion
   TEIN   =    0.0    initial temperature
   TEBEG  =    0.0;   TEEND  =   0.0 temperature during run
   SMASS  =  -3.00    Nose mass-parameter (am)
   estimated Nose-frequenzy (Omega)   =  0.10E-29 period in steps =  0.00 mass=  -0.537E-26a.u.
   SCALEE = 1.0000    scale energy and forces
   NPACO  =    256;   APACO  = 16.0  distance and # of slots for P.C.
   PSTRESS=    0.0 pullay stress

  Mass of Ions in am
   POMASS =  28.09  1.00 16.00 14.00 12.01  1.00
  Ionic Valenz
   ZVAL   =   4.00  1.00  6.00  5.00  4.00  1.00
  Atomic Wigner-Seitz radii
   RWIGS  =  -1.00 -1.00 -1.00 -1.00 -1.00 -1.00
  virtual crystal weights 
   VCA    =   1.00  1.00  1.00  1.00  1.00  1.00
   NELECT =     560.0000    total number of electrons
   NUPDOWN=      -1.0000    fix difference up-down

 DOS related values:
   EMIN   =  10.00;   EMAX   =-10.00  energy-range for DOS
   EFERMI =   0.00
   ISMEAR =     0;   SIGMA  =   0.05  broadening in eV -4-tet -1-fermi 0-gaus

 Electronic relaxation 2 (details)
   IALGO  =     68    algorithm
   LDIAG  =      T    sub-space diagonalisation (order eigenvalues)
   LSUBROT=      F    optimize rotation matrix (better conditioning)
   TURBO    =      0    0=normal 1=particle mesh
   IRESTART =      0    0=no restart 2=restart with 2 vectors
   NREBOOT  =      0    no. of reboots
   NMIN     =      0    reboot dimension
   EREF     =   0.00    reference energy to select bands
   IMIX   =      4    mixing-type and parameters
     AMIX     =   0.20;   BMIX     =  0.00
     AMIX_MAG =   0.80;   BMIX_MAG =  0.00
     AMIN     =   0.10
     WC   =   100.;   INIMIX=   1;  MIXPRE=   1;  MAXMIX=  30

 Intra band minimization:
   WEIMIN = 0.0000     energy-eigenvalue tresh-hold
   EBREAK =  0.68E-09  absolut break condition
   DEPER  =   0.30     relativ break condition  

   TIME   =   0.40     timestep for ELM

  volume/ion in A,a.u.               =      40.66       274.41
  Fermi-wavevector in a.u.,A,eV,Ry     =   0.698892  1.320715  6.645769  0.488450
  Thomas-Fermi vector in A             =   1.782621
 
 Write flags
   LWAVE        =      F    write WAVECAR
   LDOWNSAMPLE  =      F    k-point downsampling of WAVECAR
   LCHARG       =      F    write CHGCAR
   LVTOT        =      F    write LOCPOT, total local potential
   LVHAR        =      F    write LOCPOT, Hartree potential only
   LELF         =      F    write electronic localiz. function (ELF)
   LORBIT       =      0    0 simple, 1 ext, 2 COOP (PROOUT), +10 PAW based schemes


 Dipole corrections
   LMONO  =      F    monopole corrections only (constant potential shift)
   LDIPOL =      F    correct potential (dipole corrections)
   IDIPOL =      0    1-x, 2-y, 3-z, 4-all directions 
   EPSILON=  1.0000000 bulk dielectric constant

 Exchange correlation treatment:
   GGA     =    --    GGA type
   LEXCH   =     8    internal setting for exchange type
   VOSKOWN=      0    Vosko Wilk Nusair interpolation
   LHFCALC =     F    Hartree Fock is set to
   LHFONE  =     F    Hartree Fock one center treatment
   AEXX    =    0.0000 exact exchange contribution

 Linear response parameters
   LEPSILON=     F    determine dielectric tensor
   LRPA    =     F    only Hartree local field effects (RPA)
   LNABLA  =     F    use nabla operator in PAW spheres
   LVEL    =     F    velocity operator in full k-point grid
   LINTERFAST=   F  fast interpolation
   KINTER  =     0    interpolate to denser k-point grid
   CSHIFT  =0.1000    complex shift for real part using Kramers Kronig
   OMEGAMAX=  -1.0    maximum frequency
   DEG_THRESHOLD= 0.2000000E-02 threshold for treating states as degnerate
   RTIME   =   -0.100 relaxation time in fs
  (WPLASMAI=    0.000 imaginary part of plasma frequency in eV, 0.658/RTIME)
   DFIELD  = 0.0000000 0.0000000 0.0000000 field for delta impulse in time
 
 Orbital magnetization related:
   ORBITALMAG=     F  switch on orbital magnetization
   LCHIMAG   =     F  perturbation theory with respect to B field
   DQ        =  0.001000  dq finite difference perturbation B field
   LLRAUG    =     F  two centre corrections for induced B field



--------------------------------------------------------------------------------------------------------


 Static calculation
 charge density and potential will be updated during run
 non-spin polarized calculation
 RMM-DIIS sequential band-by-band and
  variant of blocked Davidson during initial phase
 perform sub-space diagonalisation
    before iterative eigenvector-optimisation
 modified Broyden-mixing scheme, WC =      100.0
 initial mixing is a Kerker type mixing with AMIX =  0.2000 and BMIX =      0.0001
 Hartree-type preconditioning will be used
 using additional bands           90
 real space projection scheme for non local part
 use partial core corrections
 calculate Harris-corrections to forces 
   (improved forces if not selfconsistent)
 use gradient corrections 
 use of overlap-Matrix (Vanderbilt PP)
 Gauss-broadening in eV      SIGMA  =   0.05


--------------------------------------------------------------------------------------------------------


  energy-cutoff  :      400.00
  volume of cell :     7197.51
      direct lattice vectors                 reciprocal lattice vectors
    15.324419022  0.000000000  0.000000000     0.065255329  0.000000000  0.000000000
     0.000000000 15.324419022  0.000000000     0.000000000  0.065255329  0.000000000
     0.000000000  0.000000000 30.648838043     0.000000000  0.000000000  0.032627664

  length of vectors
    15.324419022 15.324419022 30.648838043     0.065255329  0.065255329  0.032627664


 
 k-points in units of 2pi/SCALE and weight: K-Points                                
   0.00000000  0.00000000  0.00000000       0.250
   0.03262766  0.00000000  0.00000000       0.250
   0.00000000  0.03262766  0.00000000       0.250
   0.03262766  0.03262766  0.00000000       0.250
 
 k-points in reciprocal lattice and weights: K-Points                                
   0.00000000  0.00000000  0.00000000       0.250
   0.50000000  0.00000000  0.00000000       0.250
   0.00000000  0.50000000  0.00000000       0.250
   0.50000000  0.50000000  0.00000000       0.250
 
 position of ions in fractional coordinates (direct lattice) 
   0.00000000  0.00000000  0.03099563
   0.50000003  0.00000000  0.03099563
   0.00000000  0.25000034  0.03099563
   0.50000003  0.25000034  0.03099563
   0.25000034  0.00000000  0.03099563
   0.75000037  0.00000000  0.03099563
   0.00000000  0.50000003  0.03099563
   0.50000003  0.50000003  0.03099563
   0.25000034  0.25000034  0.03099563
   0.75000037  0.25000034  0.03099563
   0.00000000  0.75000037  0.03099563
   0.50000003  0.75000037  0.03099563
   0.25000034  0.50000003  0.03099563
   0.75000037  0.50000003  0.03099563
   0.25000034  0.75000037  0.03099563
   0.75000037  0.75000037  0.03099563
   0.12499984  0.00000000  0.07518980
   0.62499988  0.00000000  0.07518980
   0.12499984  0.25000034  0.07518980
   0.62499988  0.25000034  0.07518980
   0.37500019  0.00000000  0.07518980
   0.87500022  0.00000000  0.07518980
   0.12499984  0.50000003  0.07518980
   0.62499988  0.50000003  0.07518980
   0.37500019  0.25000034  0.07518980
   0.87500022  0.25000034  0.07518980
   0.12499984  0.75000037  0.07518980
   0.62499988  0.75000037  0.07518980
   0.37500019  0.50000003  0.07518980
   0.87500022  0.50000003  0.07518980
   0.37500019  0.75000037  0.07518980
   0.87500022  0.75000037  0.07518980
   0.12495883  0.12438827  0.11734652
   0.62502615  0.12439078  0.11734454
   0.12383393  0.37457724  0.12165946
   0.62571797  0.37469201  0.12177857
   0.37499638  0.12556798  0.11724130
   0.87499502  0.12560245  0.11731564
   0.12552329  0.62550232  0.11748580
   0.62402658  0.62540064  0.11758665
   0.37497883  0.37507781  0.12106214
   0.87486867  0.37511656  0.12140209
   0.12494299  0.87515615  0.12122308
   0.62508160  0.87517878  0.12120222
   0.37500373  0.62460734  0.11776705
   0.87486940  0.62440230  0.11748458
   0.37498586  0.87515481  0.12233264
   0.87498523  0.87499123  0.12228858
   0.99994421  0.12507127  0.16028910
   0.49989506  0.12489214  0.16019027
   0.49997825  0.37314573  0.16691576
   0.99890223  0.37535610  0.16800786
   0.25008965  0.12481984  0.16018167
   0.75003782  0.12506850  0.16028263
   0.00012561  0.62550974  0.16031497
   0.49979146  0.62763211  0.16102567
   0.24956236  0.37263845  0.16654599
   0.75077490  0.37530980  0.16799157
   0.00098492  0.87497626  0.16784328
   0.50159020  0.87496961  0.16775654
   0.24985934  0.62799840  0.16065303
   0.74956664  0.62544759  0.16027915
   0.24847452  0.87485749  0.16777294
   0.74898963  0.87497557  0.16785329
   0.00809411  0.00568828  0.20960386
   0.50803453  0.00565183  0.20945426
   0.49179532  0.24391697  0.20953174
   0.99165601  0.24442883  0.20963097
   0.24199104  0.00556326  0.20943365
   0.74186976  0.00570564  0.20961780
   0.49846593  0.50329127  0.20831421
   0.99090295  0.50619262  0.20994332
   0.25797388  0.24386968  0.20947950
   0.75807356  0.24440775  0.20960557
   0.00822909  0.74463098  0.20996301
   0.50616756  0.74541320  0.21009120
   0.24962637  0.50318475  0.20725509
   0.75824327  0.50620464  0.20983613
   0.24432652  0.74519589  0.20999310
   0.74216969  0.74449472  0.20988611
   0.12518019  0.04061386  0.25800956
   0.62480031  0.04062603  0.25805963
   0.12475467  0.18752118  0.23391663
   0.62500493  0.18749275  0.23393518
   0.37497262  0.06256515  0.23391946
   0.87498130  0.06234129  0.23403962
   0.12212714  0.56587007  0.23443051
   0.62695144  0.56567042  0.23454798
   0.37486858  0.21006507  0.25831671
   0.87485250  0.20942222  0.25819202
   0.12610083  0.71210249  0.25825768
   0.62439326  0.71188602  0.25825654
   0.37313271  0.55434594  0.24348807
   0.87456073  0.54079287  0.25849952
   0.37536310  0.70727668  0.24512354
   0.87520157  0.68788495  0.23413498
   0.00000000  0.17115559  0.00311920
   0.50000003  0.17115559  0.00311920
   0.00000000  0.32884444  0.00311920
   0.50000003  0.32884444  0.00311920
   0.00000000  0.42115593  0.00311920
   0.50000003  0.42115593  0.00311920
   0.00000000  0.07884410  0.00311920
   0.50000003  0.07884410  0.00311920
   0.25000034  0.07884410  0.00311920
   0.75000037  0.07884410  0.00311920
   0.25000034  0.17115559  0.00311920
   0.75000037  0.17115559  0.00311920
   0.25000034  0.32884444  0.00311920
   0.75000037  0.32884444  0.00311920
   0.25000034  0.42115593  0.00311920
   0.75000037  0.42115593  0.00311920
   0.00000000  0.67115562  0.00311920
   0.50000003  0.67115562  0.00311920
   0.00000000  0.82884447  0.00311920
   0.50000003  0.82884447  0.00311920
   0.00000000  0.92115597  0.00311920
   0.50000003  0.92115597  0.00311920
   0.00000000  0.57884413  0.00311920
   0.50000003  0.57884413  0.00311920
   0.25000034  0.57884413  0.00311920
   0.75000037  0.57884413  0.00311920
   0.25000034  0.67115562  0.00311920
   0.75000037  0.67115562  0.00311920
   0.25000034  0.82884447  0.00311920
   0.75000037  0.82884447  0.00311920
   0.25000034  0.92115597  0.00311920
   0.75000037  0.92115597  0.00311920
   0.65500023  0.57230528  0.53220784
   0.79732603  0.55079624  0.61679320
   0.64770677  0.81827740  0.45513630
   0.91385108  0.54453847  0.57048646
   0.56748506  0.81649749  0.51788986
   0.75669092  0.71209778  0.58743014
   0.70519899  0.76602019  0.56524576
   0.78356992  0.73572779  0.50082355
   0.83333058  0.68052827  0.52257588
   0.58756867  0.57671516  0.56436005
   0.62942856  0.58144882  0.48952877
   0.54825312  0.59455050  0.47435686
   0.44819651  0.55922657  0.40843090
   0.45035295  0.50932312  0.36600682
   0.36274575  0.51741246  0.34076938
   0.37512500  0.72619300  0.34533342
   0.37212699  0.67015932  0.30497731
   0.36783052  0.58087480  0.30352319
   0.46162664  0.71596612  0.37151146
   0.52873007  0.60269134  0.42747964
   0.45266125  0.65745434  0.41101100
   0.82856110  0.47197310  0.63750925
   0.49455852  0.85138125  0.49359967
   0.84726689  0.57921155  0.58338156
   0.64003775  0.80291154  0.49388403
   0.80755027  0.65934319  0.56326156
   0.71104286  0.76374932  0.52157877
   0.68612510  0.57726038  0.46803064
   0.62020786  0.56992404  0.59599990
   0.54014171  0.52340172  0.55961601
   0.55348210  0.64006963  0.56286917
   0.49286613  0.59797038  0.49677767
   0.41159519  0.68532381  0.43675674
   0.40520559  0.52949877  0.43279451
   0.58579109  0.60301232  0.40601379
   0.51323705  0.69173128  0.34962822
   0.48416157  0.78065710  0.38247120
   0.31968983  0.70933477  0.36681458
   0.36595180  0.79491023  0.33604956
   0.31134505  0.53790560  0.36386883
   0.34309662  0.45311437  0.32813277
   0.46395055  0.44013800  0.37305718
   0.50428654  0.53226067  0.34521133
   0.89363872  0.48285260  0.65148798
   0.78091775  0.45738624  0.66309301
   0.83212717  0.41870279  0.61359502
   0.44119379  0.85660987  0.51718960
   0.47743489  0.80703938  0.46678599
   0.51126051  0.91563573  0.48010452
 
 position of ions in cartesian coordinates  (Angst):
   0.00000000  0.00000000  0.94998000
   7.66221000  0.00000000  0.94998000
   0.00000000  3.83111000  0.94998000
   7.66221000  3.83111000  0.94998000
   3.83111000  0.00000000  0.94998000
  11.49332000  0.00000000  0.94998000
   0.00000000  7.66221000  0.94998000
   7.66221000  7.66221000  0.94998000
   3.83111000  3.83111000  0.94998000
  11.49332000  3.83111000  0.94998000
   0.00000000 11.49332000  0.94998000
   7.66221000 11.49332000  0.94998000
   3.83111000  7.66221000  0.94998000
  11.49332000  7.66221000  0.94998000
   3.83111000 11.49332000  0.94998000
  11.49332000 11.49332000  0.94998000
   1.91555000  0.00000000  2.30448000
   9.57776000  0.00000000  2.30448000
   1.91555000  3.83111000  2.30448000
   9.57776000  3.83111000  2.30448000
   5.74666000  0.00000000  2.30448000
  13.40887000  0.00000000  2.30448000
   1.91555000  7.66221000  2.30448000
   9.57776000  7.66221000  2.30448000
   5.74666000  3.83111000  2.30448000
  13.40887000  3.83111000  2.30448000
   1.91555000 11.49332000  2.30448000
   9.57776000 11.49332000  2.30448000
   5.74666000  7.66221000  2.30448000
  13.40887000  7.66221000  2.30448000
   5.74666000 11.49332000  2.30448000
  13.40887000 11.49332000  2.30448000
   1.91492152  1.90617804  3.59653440
   9.57816261  1.90621644  3.59647368
   1.89768306  5.74017855  3.72872098
   9.58876441  5.74193735  3.73237158
   5.74660163  1.92425630  3.59330975
  13.40879038  1.92478454  3.59558798
   1.92357149  9.58545966  3.60080339
   9.56284473  9.58390145  3.60389431
   5.74633275  5.74784953  3.71041399
  13.40685406  5.74844333  3.72083289
   1.91467872 13.41125954  3.71534648
   9.57901238 13.41160637  3.71470732
   5.74671437  9.57174463  3.60942334
  13.40686524  9.56860253  3.60076583
   5.74644050 13.41123898  3.74935318
  13.40864024 13.40873226  3.74800279
  15.32356411  1.91664455  4.91267455
   7.66060143  1.91389946  4.90964564
   7.66187620  5.71824155  5.11577406
  15.30759638  5.75211412  5.14924567
   3.83247862  1.91279146  4.90938213
  11.49389378  1.91660214  4.91247644
   0.00192494  9.58557332  4.91346764
   7.65901382  9.61809752  4.93524971
   3.82439816  5.71046782  5.10444101
  11.50518915  5.75140462  5.14874638
   0.01509327 13.40850291  5.14420135
   7.68657838 13.40840097  5.14154313
   3.82894927  9.62371067  4.92382885
  11.48667333  9.58462101  4.91236984
   3.80772773 13.40668270  5.14204569
  11.47783090 13.40849224  5.14450824
   0.12403753  0.08716961  6.42411473
   7.78533407  0.08661096  6.41952958
   7.53647756  3.73788591  6.42190432
  15.19655217  3.74572981  6.42494563
   3.70837211  0.08525380  6.41889793
  11.36872304  0.08743558  6.42454215
   7.63870081  7.71264625  6.38458834
  15.18501207  7.75710776  6.43451868
   3.95329988  3.73716124  6.42030324
  11.61703683  3.74540670  6.42416712
   0.12610607 11.41103717  6.43512216
   7.75672372 11.42302423  6.43905126
   3.82537913  7.71101398  6.35212755
  11.61963755  7.75729209  6.43123350
   3.74416205 11.41969407  6.43604461
  11.37331925 11.40894906  6.43276552
   1.91831372  0.62238385  7.90769309
   9.57470172  0.62257028  7.90922792
   1.91179282  2.87365309  7.16927291
   9.57783750  2.87321747  7.16984153
   5.74623759  0.95877453  7.16935958
  13.40858002  0.95534402  7.17304255
   1.87152742  8.67163007  7.18502272
   9.60766659  8.66857059  7.18862313
   5.74464314  3.21912514  7.91710701
  13.40660634  3.20927389  7.91328533
   1.93242201 10.91255697  7.91529793
   9.56846396 10.90923972  7.91526295
   5.71804203  8.49502946  7.46262635
  13.40213505  8.28733655  7.92270987
   5.75222137 10.83860416  7.51275177
  13.41195566 10.54143715  7.17596495
   0.00000000  2.62286000  0.09560000
   7.66221000  2.62286000  0.09560000
   0.00000000  5.03935000  0.09560000
   7.66221000  5.03935000  0.09560000
   0.00000000  6.45397000  0.09560000
   7.66221000  6.45397000  0.09560000
   0.00000000  1.20824000  0.09560000
   7.66221000  1.20824000  0.09560000
   3.83111000  1.20824000  0.09560000
  11.49332000  1.20824000  0.09560000
   3.83111000  2.62286000  0.09560000
  11.49332000  2.62286000  0.09560000
   3.83111000  5.03935000  0.09560000
  11.49332000  5.03935000  0.09560000
   3.83111000  6.45397000  0.09560000
  11.49332000  6.45397000  0.09560000
   0.00000000 10.28507000  0.09560000
   7.66221000 10.28507000  0.09560000
   0.00000000 12.70156000  0.09560000
   7.66221000 12.70156000  0.09560000
   0.00000000 14.11618000  0.09560000
   7.66221000 14.11618000  0.09560000
   0.00000000  8.87045000  0.09560000
   7.66221000  8.87045000  0.09560000
   3.83111000  8.87045000  0.09560000
  11.49332000  8.87045000  0.09560000
   3.83111000 10.28507000  0.09560000
  11.49332000 10.28507000  0.09560000
   3.83111000 12.70156000  0.09560000
  11.49332000 12.70156000  0.09560000
   3.83111000 14.11618000  0.09560000
  11.49332000 14.11618000  0.09560000
  10.03749798  8.77024594 16.31155185
  12.21855815  8.44063244 18.90399500
   9.92572998 12.53962569 13.94939867
  14.00423685  8.34473576 17.48474718
   8.69637878 12.51234970 15.87272244
  11.59584869 10.91248470 18.00405132
  10.80676482 11.73881438 17.32412563
  12.00775381 11.27460093 15.34966002
  12.77030700 10.42870038 16.01634345
   9.00414849  8.83782481 17.29697968
   9.64562696  8.91036535 15.00348797
   8.40166047  9.11114105 14.53848654
   6.86835115  8.56982229 12.51793261
   6.90139732  7.80508092 11.21768374
   5.55886781  7.92904532 10.44418557
   5.74857261 11.12848583 10.58406792
   5.70263000 10.26980216  9.34720006
   5.63678906  8.90156883  9.30263315
   7.07416006 10.97176481 11.38639445
   8.10248117  9.23589467 13.10175420
   6.93677063 10.07510576 12.59700949
  12.69721748  7.23271353 19.53891773
   7.57882198 13.04692298 15.12825628
  12.98387278  8.87608053 17.87996696
   9.80820671 12.30415290 15.13697154
  12.37523865 10.10405136 17.26331242
  10.89631872 11.70401464 15.98578339
  10.51446846  8.84617996 14.34459528
   9.50432508  8.73375482 18.26670454
   8.27735792  8.02082722 17.15158039
   8.48179168  9.80869517 17.25128599
   7.55288709  9.16354874 15.22565839
   6.30745715 10.50218921 13.38608656
   6.20954018  8.11426105 13.26464880
   8.97690815  9.24081346 12.44385082
   7.86505967 10.60038000 10.71569869
   7.41949483 11.96311650 11.72229783
   4.89906096 10.87014319 11.24244075
   5.60799867 12.18153743 10.29952852
   4.77118193  8.24309086 11.15215679
   5.25775639  6.94371443 10.05688803
   7.10977259  6.74485914 11.43376903
   7.72789827  8.15658556 10.58032614
  13.69449416  7.39943550 19.96734967
  11.96711077  7.00917834 20.32303038
  12.75186540  6.41637695 18.80597434
   6.76103849 13.12704856 15.85126040
   7.31641225 12.36740958 14.30644836
   7.83477028 14.03158556 14.71464581
 


--------------------------------------------------------------------------------------------------------


 k-point  1 :   0.0000 0.0000 0.0000  plane waves:  130447
 k-point  2 :   0.5000 0.0000 0.0000  plane waves:  130762
 k-point  3 :   0.0000 0.5000 0.0000  plane waves:  130762
 k-point  4 :   0.5000 0.5000 0.0000  plane waves:  130752

 maximum and minimum number of plane-waves per node :     13112    12997

 maximum number of plane-waves:    130762
 maximum index in each direction: 
   IXMAX=   24   IYMAX=   24   IZMAX=   49
   IXMIN=  -25   IYMIN=  -25   IZMIN=  -49


 real space projection operators:
  total allocation   :      30500.84 KBytes
  max/ min on nodes  :       3077.31       3030.04


 parallel 3D FFT for wavefunctions:
    minimum data exchange during FFTs selected (reduces bandwidth)
 parallel 3D FFT for charge:
    minimum data exchange during FFTs selected (reduces bandwidth)


 total amount of memory used by VASP MPI-rank0   319072. kBytes
=======================================================================

   base      :      30000. kBytes
   nonlr-proj:      21042. kBytes
   fftplans  :      32865. kBytes
   grid      :      78704. kBytes
   one-center:         55. kBytes
   wavefun   :     156406. kBytes
 
     INWAV:  cpu time    0.0000: real time    0.0001
 Broyden mixing: mesh for mixing (old mesh)
   NGX = 49   NGY = 49   NGZ = 99
  (NGX  =200   NGY  =200   NGZ  =400)
  gives a total of 237699 points

 initial charge density was supplied:
 charge density of overlapping atoms calculated
 number of electron     560.0000000 magnetization 
 keeping initial charge density in first step


--------------------------------------------------------------------------------------------------------


 Maximum index for non-local projection operator          592
 Maximum index for augmentation-charges          530 (set IRDMAX)


--------------------------------------------------------------------------------------------------------


 First call to EWALD:  gamma=   0.092
 Maximum number of real-space cells 3x 3x 2
 Maximum number of reciprocal cells 2x 2x 4

    FEWALD:  cpu time    0.0095: real time    0.0096


--------------------------------------- Iteration      1(   1)  ---------------------------------------


    POTLOK:  cpu time    0.6772: real time    0.7209
    SETDIJ:  cpu time    0.0090: real time    0.0091
     EDDAV:  cpu time   43.4089: real time   43.5124
       DOS:  cpu time    0.0011: real time    0.0011
    --------------------------------------------
      LOOP:  cpu time   44.0961: real time   44.2434

 eigenvalue-minimisations  :  3078
 total energy-change (2. order) : 0.3109745E+04  (-0.1635031E+05)
 number of electron     560.0000000 magnetization 
 augmentation part      560.0000000 magnetization 

 Free energy of the ion-electron system (eV)
  ---------------------------------------------------
  alpha Z        PSCENC =       117.57232139
  Ewald energy   TEWEN  =     63763.28452153
  -Hartree energ DENC   =    -77290.19649413
  -exchange      EXHF   =         0.00000000
  -V(xc)+E(xc)   XCENC  =      -320.90678406
  PAW double counting   =     13080.99739032   -11416.52832971
  entropy T*S    EENTRO =        -0.05554080
  eigenvalues    EBANDS =     -1260.08545513
  atomic energy  EATOM  =     16435.66382135
  Solvation  Ediel_sol  =         0.00000000
  ---------------------------------------------------
  free energy    TOTEN  =      3109.74545075 eV

  energy without entropy =     3109.80099155  energy(sigma->0) =     3109.77322115


--------------------------------------------------------------------------------------------------------




--------------------------------------- Iteration      1(   2)  ---------------------------------------


     EDDAV:  cpu time   55.1971: real time   55.3407
       DOS:  cpu time    0.0010: real time    0.0010
    --------------------------------------------
      LOOP:  cpu time   55.1981: real time   55.3417

 eigenvalue-minimisations  :  4112
 total energy-change (2. order) :-0.3494676E+04  (-0.3359089E+04)
 number of electron     560.0000000 magnetization 
 augmentation part      560.0000000 magnetization 

 Free energy of the ion-electron system (eV)
  ---------------------------------------------------
  alpha Z        PSCENC =       117.57232139
  Ewald energy   TEWEN  =     63763.28452153
  -Hartree energ DENC   =    -77290.19649413
  -exchange      EXHF   =         0.00000000
  -V(xc)+E(xc)   XCENC  =      -320.90678406
  PAW double counting   =     13080.99739032   -11416.52832971
  entropy T*S    EENTRO =        -0.02095896
  eigenvalues    EBANDS =     -4754.79595026
  atomic energy  EATOM  =     16435.66382135
  Solvation  Ediel_sol  =         0.00000000
  ---------------------------------------------------
  free energy    TOTEN  =      -384.93046254 eV

  energy without entropy =     -384.90950358  energy(sigma->0) =     -384.91998306


--------------------------------------------------------------------------------------------------------




--------------------------------------- Iteration      1(   3)  ---------------------------------------


     EDDAV:  cpu time   47.6437: real time   47.7700
       DOS:  cpu time    0.0005: real time    0.0005
    --------------------------------------------
      LOOP:  cpu time   47.6442: real time   47.7705

 eigenvalue-minimisations  :  3444
 total energy-change (2. order) :-0.5355698E+03  (-0.5220303E+03)
 number of electron     560.0000000 magnetization 
 augmentation part      560.0000000 magnetization 

 Free energy of the ion-electron system (eV)
  ---------------------------------------------------
  alpha Z        PSCENC =       117.57232139
  Ewald energy   TEWEN  =     63763.28452153
  -Hartree energ DENC   =    -77290.19649413
  -exchange      EXHF   =         0.00000000
  -V(xc)+E(xc)   XCENC  =      -320.90678406
  PAW double counting   =     13080.99739032   -11416.52832971
  entropy T*S    EENTRO =        -0.00000000
  eigenvalues    EBANDS =     -5290.38675569
  atomic energy  EATOM  =     16435.66382135
  Solvation  Ediel_sol  =         0.00000000
  ---------------------------------------------------
  free energy    TOTEN  =      -920.50030900 eV

  energy without entropy =     -920.50030900  energy(sigma->0) =     -920.50030900


--------------------------------------------------------------------------------------------------------




--------------------------------------- Iteration      1(   4)  ---------------------------------------


     EDDAV:  cpu time   52.2342: real time   52.3662
       DOS:  cpu time    0.0005: real time    0.0005
    --------------------------------------------
      LOOP:  cpu time   52.2347: real time   52.3666

 eigenvalue-minimisations  :  3832
 total energy-change (2. order) :-0.3307221E+02  (-0.3279054E+02)
 number of electron     560.0000000 magnetization 
 augmentation part      560.0000000 magnetization 

 Free energy of the ion-electron system (eV)
  ---------------------------------------------------
  alpha Z        PSCENC =       117.57232139
  Ewald energy   TEWEN  =     63763.28452153
  -Hartree energ DENC   =    -77290.19649413
  -exchange      EXHF   =         0.00000000
  -V(xc)+E(xc)   XCENC  =      -320.90678406
  PAW double counting   =     13080.99739032   -11416.52832971
  entropy T*S    EENTRO =        -0.00000000
  eigenvalues    EBANDS =     -5323.45896178
  atomic energy  EATOM  =     16435.66382135
  Solvation  Ediel_sol  =         0.00000000
  ---------------------------------------------------
  free energy    TOTEN  =      -953.57251509 eV

  energy without entropy =     -953.57251509  energy(sigma->0) =     -953.57251509


--------------------------------------------------------------------------------------------------------




--------------------------------------- Iteration      1(   5)  ---------------------------------------


     EDDAV:  cpu time   57.9901: real time   58.1403
       DOS:  cpu time    0.0008: real time    0.0008
    --------------------------------------------
      LOOP:  cpu time   57.9909: real time   58.1411

 eigenvalue-minimisations  :  4328
 total energy-change (2. order) :-0.1420885E+01  (-0.1413007E+01)
 number of electron     560.0000000 magnetization 
 augmentation part      560.0000000 magnetization 

 Free energy of the ion-electron system (eV)
  ---------------------------------------------------
  alpha Z        PSCENC =       117.57232139
  Ewald energy   TEWEN  =     63763.28452153
  -Hartree energ DENC   =    -77290.19649413
  -exchange      EXHF   =         0.00000000
  -V(xc)+E(xc)   XCENC  =      -320.90678406
  PAW double counting   =     13080.99739032   -11416.52832971
  entropy T*S    EENTRO =        -0.00000297
  eigenvalues    EBANDS =     -5324.87984411
  atomic energy  EATOM  =     16435.66382135
  Solvation  Ediel_sol  =         0.00000000
  ---------------------------------------------------
  free energy    TOTEN  =      -954.99340039 eV

  energy without entropy =     -954.99339742  energy(sigma->0) =     -954.99339891


--------------------------------------------------------------------------------------------------------




--------------------------------------- Iteration      1(   6)  ---------------------------------------


     EDDAV:  cpu time   61.0557: real time   61.2095
       DOS:  cpu time    0.0008: real time    0.0008
    --------------------------------------------
      LOOP:  cpu time   61.0565: real time   61.2104

 eigenvalue-minimisations  :  4598
 total energy-change (2. order) :-0.3978730E-01  (-0.3954252E-01)
 number of electron     560.0000000 magnetization 
 augmentation part      560.0000000 magnetization 

 Free energy of the ion-electron system (eV)
  ---------------------------------------------------
  alpha Z        PSCENC =       117.57232139
  Ewald energy   TEWEN  =     63763.28452153
  -Hartree energ DENC   =    -77290.19649413
  -exchange      EXHF   =         0.00000000
  -V(xc)+E(xc)   XCENC  =      -320.90678406
  PAW double counting   =     13080.99739032   -11416.52832971
  entropy T*S    EENTRO =        -0.00000844
  eigenvalues    EBANDS =     -5324.91962593
  atomic energy  EATOM  =     16435.66382135
  Solvation  Ediel_sol  =         0.00000000
  ---------------------------------------------------
  free energy    TOTEN  =      -955.03318769 eV

  energy without entropy =     -955.03317925  energy(sigma->0) =     -955.03318347


--------------------------------------------------------------------------------------------------------




--------------------------------------- Iteration      1(   7)  ---------------------------------------


     EDDAV:  cpu time   59.6589: real time   59.8076
       DOS:  cpu time    0.0008: real time    0.0008
    --------------------------------------------
      LOOP:  cpu time   59.6597: real time   59.8084

 eigenvalue-minimisations  :  4486
 total energy-change (2. order) :-0.1668960E-02  (-0.1661813E-02)
 number of electron     560.0000000 magnetization 
 augmentation part      560.0000000 magnetization 

 Free energy of the ion-electron system (eV)
  ---------------------------------------------------
  alpha Z        PSCENC =       117.57232139
  Ewald energy   TEWEN  =     63763.28452153
  -Hartree energ DENC   =    -77290.19649413
  -exchange      EXHF   =         0.00000000
  -V(xc)+E(xc)   XCENC  =      -320.90678406
  PAW double counting   =     13080.99739032   -11416.52832971
  entropy T*S    EENTRO =        -0.00000888
  eigenvalues    EBANDS =     -5324.92129446
  atomic energy  EATOM  =     16435.66382135
  Solvation  Ediel_sol  =         0.00000000
  ---------------------------------------------------
  free energy    TOTEN  =      -955.03485665 eV

  energy without entropy =     -955.03484777  energy(sigma->0) =     -955.03485221


--------------------------------------------------------------------------------------------------------




--------------------------------------- Iteration      1(   8)  ---------------------------------------


     EDDAV:  cpu time   62.0270: real time   62.1811
       DOS:  cpu time    0.0008: real time    0.0008
    --------------------------------------------
      LOOP:  cpu time   62.0278: real time   62.1819

 eigenvalue-minimisations  :  4694
 total energy-change (2. order) :-0.8225166E-04  (-0.8220361E-04)
 number of electron     560.0000000 magnetization 
 augmentation part      560.0000000 magnetization 

 Free energy of the ion-electron system (eV)
  ---------------------------------------------------
  alpha Z        PSCENC =       117.57232139
  Ewald energy   TEWEN  =     63763.28452153
  -Hartree energ DENC   =    -77290.19649413
  -exchange      EXHF   =         0.00000000
  -V(xc)+E(xc)   XCENC  =      -320.90678406
  PAW double counting   =     13080.99739032   -11416.52832971
  entropy T*S    EENTRO =        -0.00000892
  eigenvalues    EBANDS =     -5324.92137666
  atomic energy  EATOM  =     16435.66382135
  Solvation  Ediel_sol  =         0.00000000
  ---------------------------------------------------
  free energy    TOTEN  =      -955.03493890 eV

  energy without entropy =     -955.03492998  energy(sigma->0) =     -955.03493444


--------------------------------------------------------------------------------------------------------




--------------------------------------- Iteration      1(   9)  ---------------------------------------


     EDDAV:  cpu time   57.9754: real time   58.1204
       DOS:  cpu time    0.0008: real time    0.0008
    --------------------------------------------
      LOOP:  cpu time   57.9763: real time   58.1212

 eigenvalue-minimisations  :  4328
 total energy-change (2. order) :-0.4442882E-05  (-0.4442855E-05)
 number of electron     560.0000000 magnetization 
 augmentation part      560.0000000 magnetization 

 Free energy of the ion-electron system (eV)
  ---------------------------------------------------
  alpha Z        PSCENC =       117.57232139
  Ewald energy   TEWEN  =     63763.28452153
  -Hartree energ DENC   =    -77290.19649413
  -exchange      EXHF   =         0.00000000
  -V(xc)+E(xc)   XCENC  =      -320.90678406
  PAW double counting   =     13080.99739032   -11416.52832971
  entropy T*S    EENTRO =        -0.00000893
  eigenvalues    EBANDS =     -5324.92138110
  atomic energy  EATOM  =     16435.66382135
  Solvation  Ediel_sol  =         0.00000000
  ---------------------------------------------------
  free energy    TOTEN  =      -955.03494335 eV

  energy without entropy =     -955.03493442  energy(sigma->0) =     -955.03493888


--------------------------------------------------------------------------------------------------------




--------------------------------------- Iteration      1(  10)  ---------------------------------------


     EDDAV:  cpu time   39.7276: real time   39.8286
       DOS:  cpu time    0.0007: real time    0.0007
    --------------------------------------------
      LOOP:  cpu time   39.7284: real time   39.8293

 eigenvalue-minimisations  :  2758
 total energy-change (2. order) :-0.2822053E-06  (-0.2819765E-06)
 number of electron     560.0000000 magnetization 
 augmentation part      560.0000000 magnetization 

 Free energy of the ion-electron system (eV)
  ---------------------------------------------------
  alpha Z        PSCENC =       117.57232139
  Ewald energy   TEWEN  =     63763.28452153
  -Hartree energ DENC   =    -77290.19649413
  -exchange      EXHF   =         0.00000000
  -V(xc)+E(xc)   XCENC  =      -320.90678406
  PAW double counting   =     13080.99739032   -11416.52832971
  entropy T*S    EENTRO =        -0.00000893
  eigenvalues    EBANDS =     -5324.92138139
  atomic energy  EATOM  =     16435.66382135
  Solvation  Ediel_sol  =         0.00000000
  ---------------------------------------------------
  free energy    TOTEN  =      -955.03494363 eV

  energy without entropy =     -955.03493470  energy(sigma->0) =     -955.03493917


--------------------------------------------------------------------------------------------------------




--------------------------------------- Iteration      1(  11)  ---------------------------------------


     EDDAV:  cpu time   34.9587: real time   35.0502
       DOS:  cpu time    0.0007: real time    0.0007
    --------------------------------------------
      LOOP:  cpu time   34.9594: real time   35.0509

 eigenvalue-minimisations  :  2344
 total energy-change (2. order) :-0.4247704E-07  (-0.4251773E-07)
 number of electron     560.0000000 magnetization 
 augmentation part      560.0000000 magnetization 

 Free energy of the ion-electron system (eV)
  ---------------------------------------------------
  alpha Z        PSCENC =       117.57232139
  Ewald energy   TEWEN  =     63763.28452153
  -Hartree energ DENC   =    -77290.19649413
  -exchange      EXHF   =         0.00000000
  -V(xc)+E(xc)   XCENC  =      -320.90678406
  PAW double counting   =     13080.99739032   -11416.52832971
  entropy T*S    EENTRO =        -0.00000893
  eigenvalues    EBANDS =     -5324.92138143
  atomic energy  EATOM  =     16435.66382135
  Solvation  Ediel_sol  =         0.00000000
  ---------------------------------------------------
  free energy    TOTEN  =      -955.03494367 eV

  energy without entropy =     -955.03493475  energy(sigma->0) =     -955.03493921


--------------------------------------------------------------------------------------------------------




--------------------------------------- Iteration      1(  12)  ---------------------------------------


     EDDAV:  cpu time   34.5267: real time   34.6165
       DOS:  cpu time    0.0008: real time    0.0008
    --------------------------------------------
      LOOP:  cpu time   34.5275: real time   34.6173

 eigenvalue-minimisations  :  2284
 total energy-change (2. order) :-0.2066372E-07  (-0.2076296E-07)
 number of electron     560.0000000 magnetization 
 augmentation part      560.0000000 magnetization 

 Free energy of the ion-electron system (eV)
  ---------------------------------------------------
  alpha Z        PSCENC =       117.57232139
  Ewald energy   TEWEN  =     63763.28452153
  -Hartree energ DENC   =    -77290.19649413
  -exchange      EXHF   =         0.00000000
  -V(xc)+E(xc)   XCENC  =      -320.90678406
  PAW double counting   =     13080.99739032   -11416.52832971
  entropy T*S    EENTRO =        -0.00000893
  eigenvalues    EBANDS =     -5324.92138145
  atomic energy  EATOM  =     16435.66382135
  Solvation  Ediel_sol  =         0.00000000
[...]
   0.724E+02 -.344E+02 -.104E+03   -.756E+02 0.366E+02 0.108E+03   0.322E+01 -.217E+01 -.399E+01   -.761E-05 -.839E-04 -.226E-03
   0.660E+02 0.582E+02 -.107E+03   -.694E+02 -.606E+02 0.111E+03   0.338E+01 0.236E+01 -.381E+01   -.203E-06 -.476E-04 -.162E-03
   -.722E+02 0.167E+02 -.267E+01   0.767E+02 -.167E+02 -.713E+00   -.453E+01 -.535E-01 0.338E+01   -.411E-04 -.604E-04 -.292E-03
   -.604E+02 -.709E+01 -.934E+01   0.645E+02 0.533E+01 0.598E+01   -.401E+01 0.178E+01 0.337E+01   0.303E-04 0.642E-05 -.259E-03
   -.164E+02 -.844E+02 -.570E+02   0.182E+02 0.894E+02 0.587E+02   -.182E+01 -.493E+01 -.163E+01   -.579E-04 -.246E-04 -.304E-03
   0.829E+02 -.154E+02 -.949E+02   -.871E+02 0.142E+02 0.981E+02   0.419E+01 0.123E+01 -.319E+01   -.422E-04 0.428E-04 -.210E-03
   0.282E+02 -.865E+02 -.453E+02   -.289E+02 0.918E+02 0.439E+02   0.745E+00 -.530E+01 0.139E+01   0.179E-04 0.190E-04 -.225E-03
   0.814E+02 0.143E+02 -.979E+02   -.853E+02 -.128E+02 0.101E+03   0.390E+01 -.152E+01 -.345E+01   -.448E-04 -.546E-04 -.192E-03
   0.372E+02 0.819E+02 -.435E+02   -.387E+02 -.869E+02 0.416E+02   0.154E+01 0.496E+01 0.190E+01   0.214E-04 -.352E-04 -.203E-03
   -.148E+02 0.959E+02 -.661E+02   0.159E+02 -.101E+03 0.671E+02   -.109E+01 0.528E+01 -.106E+01   0.863E-07 -.464E-04 -.191E-03
   -.622E+02 0.213E+02 -.138E+02   0.663E+02 -.197E+02 0.106E+02   -.414E+01 -.171E+01 0.319E+01   0.345E-04 -.411E-04 -.218E-03
   -.703E+02 0.208E+02 -.680E+02   0.755E+02 -.200E+02 0.703E+02   -.524E+01 -.811E+00 -.221E+01   0.111E-03 -.746E-04 0.196E-03
   0.341E+02 0.421E+02 -.803E+02   -.379E+02 -.433E+02 0.845E+02   0.385E+01 0.123E+01 -.418E+01   -.663E-04 -.119E-03 0.224E-03
   -.124E+02 0.892E+02 -.502E+01   0.128E+02 -.935E+02 0.121E+01   -.352E+00 0.429E+01 0.381E+01   0.294E-06 -.200E-03 0.309E-04
   0.816E+02 -.361E+02 -.873E+02   -.859E+02 0.366E+02 0.911E+02   0.437E+01 -.451E+00 -.381E+01   -.156E-03 0.903E-04 -.151E-04
   0.565E+02 -.727E+01 -.107E+02   -.579E+02 0.377E+01 0.640E+01   0.136E+01 0.351E+01 0.434E+01   -.142E-03 -.242E-04 -.226E-03
   0.186E+02 -.970E+02 -.236E+02   -.173E+02 0.102E+03 0.214E+02   -.131E+01 -.513E+01 0.222E+01   -.833E-04 0.161E-03 -.123E-03
 -----------------------------------------------------------------------------------------------
   0.512E+02 0.861E+01 -.110E+03   0.206E-12 0.114E-12 0.394E-12   -.512E+02 -.861E+01 0.110E+03   -.740E-02 -.745E-02 -.188E-01
 
 
 POSITION                                       TOTAL-FORCE (eV/Angst)
 -----------------------------------------------------------------------------------
      0.00000      0.00000      0.94998         0.043197     -0.138210      0.331428
      7.66221      0.00000      0.94998         0.025933     -0.147303      0.333911
      0.00000      3.83111      0.94998        -0.012248      0.125559      0.325806
      7.66221      3.83111      0.94998        -0.031733      0.156774      0.332113
      3.83111      0.00000      0.94998        -0.027019     -0.147584      0.334757
     11.49332      0.00000      0.94998        -0.043404     -0.136745      0.331538
      0.00000      7.66221      0.94998        -0.020030     -0.155117      0.333371
      7.66221      7.66221      0.94998        -0.025691     -0.158286      0.336523
      3.83111      3.83111      0.94998         0.031989      0.162095      0.333702
     11.49332      3.83111      0.94998         0.017695      0.132914      0.329484
      0.00000     11.49332      0.94998         0.045215      0.147689      0.336690
      7.66221     11.49332      0.94998         0.023269      0.164316      0.335398
      3.83111      7.66221      0.94998         0.027327     -0.155694      0.338393
     11.49332      7.66221      0.94998         0.023713     -0.154046      0.336085
      3.83111     11.49332      0.94998        -0.024164      0.158118      0.337395
     11.49332     11.49332      0.94998        -0.038758      0.138722      0.340019
      1.91555      0.00000      2.30448        -0.021233     -0.401436     -0.213095
      9.57776      0.00000      2.30448         0.021356     -0.398140     -0.216185
      1.91555      3.83111      2.30448        -0.066347      0.294405     -0.075128
      9.57776      3.83111      2.30448         0.044333      0.308951     -0.055099
      5.74666      0.00000      2.30448         0.003100     -0.390446     -0.001164
     13.40887      0.00000      2.30448         0.000794     -0.373486      0.011366
      1.91555      7.66221      2.30448        -0.027751     -0.326667     -0.015440
      9.57776      7.66221      2.30448         0.012979     -0.326780     -0.004115
      5.74666      3.83111      2.30448         0.005014      0.390591     -0.224980
     13.40887      3.83111      2.30448        -0.002046      0.423136     -0.178694
      1.91555     11.49332      2.30448        -0.010454      0.377540     -0.180892
      9.57776     11.49332      2.30448        -0.010356      0.359060     -0.158363
      5.74666      7.66221      2.30448         0.001728     -0.305298     -0.141183
     13.40887      7.66221      2.30448        -0.002665     -0.386463     -0.173639
      5.74666     11.49332      2.30448         0.007890      0.353401      0.040694
     13.40887     11.49332      2.30448        -0.000676      0.350429      0.023147
      1.91492      1.90618      3.59653        -0.000333     -0.007138     -0.033945
      9.57816      1.90622      3.59647         0.000235     -0.006995     -0.033749
      1.89768      5.74018      3.72872        -0.001533      0.004999      0.003472
      9.58876      5.74194      3.73237         0.000787      0.004617      0.002445
      5.74660      1.92426      3.59331         0.000168      0.004449     -0.034107
     13.40879      1.92478      3.59559        -0.000217      0.006380     -0.034495
      1.92357      9.58546      3.60080         0.001834      0.003783     -0.031529
      9.56284      9.58390      3.60389        -0.002157      0.004306     -0.030849
      5.74633      5.74785      3.71041         0.000111      0.004568      0.007179
     13.40685      5.74844      3.72083         0.001174      0.000257      0.008478
      1.91468     13.41126      3.71535        -0.001341      0.000340      0.005818
      9.57901     13.41161      3.71471         0.001178     -0.000216      0.007853
      5.74671      9.57174      3.60942         0.001573      0.002248     -0.063328
     13.40687      9.56860      3.60077         0.000967     -0.006298     -0.034774
      5.74644     13.41124      3.74935         0.001865     -0.002774      0.003078
     13.40864     13.40873      3.74800        -0.000972      0.000079     -0.002628
     15.32356      1.91664      4.91267         0.001346      0.002061      0.143744
      7.66060      1.91390      4.90965        -0.000830      0.000692      0.143807
      7.66188      5.71824      5.11577         0.000399      0.001518      0.032490
     15.30760      5.75211      5.14925        -0.004242     -0.000273      0.028634
      3.83248      1.91279      4.90938         0.001488      0.000133      0.143342
     11.49389      1.91660      4.91248        -0.001518     -0.000287      0.144098
      0.00192      9.58557      4.91347         0.011809     -0.007017      0.159527
      7.65901      9.61810      4.93525         0.046480     -0.043425      0.100313
      3.82440      5.71047      5.10444        -0.001318      0.002774      0.032560
     11.50519      5.75140      5.14875         0.002148     -0.000131      0.026268
      0.01509     13.40850      5.14420         0.001582     -0.002193      0.027043
      7.68658     13.40840      5.14154        -0.000372     -0.003407      0.024478
      3.82895      9.62371      4.92383        -0.043042     -0.045752      0.092595
     11.48667      9.58462      4.91237        -0.012321     -0.004054      0.153387
      3.80773     13.40668      5.14205         0.004023     -0.002334      0.021725
     11.47783     13.40849      5.14451        -0.001229      0.000033      0.027549
      0.12404      0.08717      6.42411        -0.022362      0.004467      0.087862
      7.78533      0.08661      6.41953        -0.023284      0.001865      0.087350
      7.53648      3.73789      6.42190         0.019902     -0.003951      0.089746
     15.19655      3.74573      6.42495         0.023706     -0.001086      0.086271
      3.70837      0.08525      6.41890         0.022144      0.003555      0.087011
     11.36872      0.08744      6.42454         0.021404      0.002433      0.087044
      7.63870      7.71265      6.38459         0.061652     -0.036250      0.061658
     15.18501      7.75711      6.43452         0.016082      0.007767      0.087031
      3.95330      3.73716      6.42030        -0.022327     -0.003543      0.090602
     11.61704      3.74541      6.42417        -0.023172     -0.001229      0.086718
      0.12611     11.41104      6.43512        -0.013178     -0.014610      0.092962
      7.75672     11.42302      6.43905         0.037504      0.020139      0.073964
      3.82538      7.71101      6.35213        -0.058679     -0.037774      0.061859
     11.61964      7.75729      6.43123        -0.020950      0.007339      0.088379
      3.74416     11.41969      6.43604        -0.037848      0.022943      0.062933
     11.37332     11.40895      6.43277         0.016870     -0.011470      0.089145
      1.91831      0.62238      7.90769         0.000232     -0.002680      0.074722
      9.57470      0.62257      7.90923         0.000924     -0.004436      0.072519
      1.91179      2.87365      7.16927        -0.003324     -0.123977     -0.105915
      9.57784      2.87322      7.16984         0.001075     -0.123391     -0.105754
      5.74624      0.95877      7.16936         0.001417      0.128971     -0.107645
     13.40858      0.95534      7.17304        -0.001333      0.122651     -0.104520
      1.87153      8.67163      7.18502         0.001634      0.128610     -0.124839
      9.60767      8.66857      7.18862        -0.009981      0.133169     -0.120830
      5.74464      3.21913      7.91711         0.000715      0.003096      0.072510
     13.40661      3.20927      7.91329         0.002240      0.003936      0.072401
      1.93242     10.91256      7.91530         0.005828     -0.004311      0.073824
      9.56846     10.90924      7.91526         0.000987     -0.000503      0.063504
      5.71804      8.49503      7.46263         0.000277     -0.013356      0.101556
     13.40214      8.28734      7.92271        -0.001340     -0.003109      0.073094
      5.75222     10.83860      7.51275         0.001338      0.015274      0.097313
     13.41196     10.54144      7.17596         0.003010     -0.124305     -0.103438
      0.00000      2.62286      0.09560        -0.004775      0.317635     -0.172889
      7.66221      2.62286      0.09560         0.010281      0.312213     -0.164598
      0.00000      5.03935      0.09560         0.013926     -0.327307     -0.205566
      7.66221      5.03935      0.09560         0.015184     -0.324127     -0.206860
      0.00000      6.45397      0.09560         0.008409      0.330908     -0.206220
      7.66221      6.45397      0.09560         0.006611      0.326754     -0.210971
      0.00000      1.20824      0.09560        -0.016043     -0.315211     -0.170526
      7.66221      1.20824      0.09560        -0.006314     -0.314982     -0.170684
      3.83111      1.20824      0.09560         0.006836     -0.315022     -0.170842
     11.49332      1.20824      0.09560         0.016568     -0.315670     -0.171333
      3.83111      2.62286      0.09560        -0.010470      0.311575     -0.163128
     11.49332      2.62286      0.09560        -0.000187      0.316487     -0.171181
      3.83111      5.03935      0.09560        -0.015443     -0.324330     -0.207142
     11.49332      5.03935      0.09560        -0.014110     -0.327620     -0.205883
      3.83111      6.45397      0.09560        -0.007300      0.326035     -0.209716
     11.49332      6.45397      0.09560        -0.010919      0.330829     -0.205858
      0.00000     10.28507      0.09560        -0.013509      0.313988     -0.169882
      7.66221     10.28507      0.09560        -0.006854      0.315067     -0.171677
      0.00000     12.70156      0.09560        -0.017427     -0.326943     -0.207098
      7.66221     12.70156      0.09560        -0.011795     -0.330006     -0.213275
      0.00000     14.11618      0.09560        -0.015108      0.325599     -0.205611
      7.66221     14.11618      0.09560        -0.012763      0.325625     -0.206623
      0.00000      8.87045      0.09560         0.006707     -0.312909     -0.167945
      7.66221      8.87045      0.09560         0.007890     -0.311279     -0.164819
      3.83111      8.87045      0.09560        -0.008734     -0.311101     -0.164483
     11.49332      8.87045      0.09560        -0.008545     -0.312875     -0.167984
      3.83111     10.28507      0.09560         0.007023      0.315171     -0.172023
     11.49332     10.28507      0.09560         0.013223      0.314155     -0.170138
      3.83111     12.70156      0.09560         0.012363     -0.329033     -0.211688
     11.49332     12.70156      0.09560         0.011829     -0.325759     -0.204729
      3.83111     14.11618      0.09560         0.012747      0.325608     -0.206840
     11.49332     14.11618      0.09560         0.015102      0.325925     -0.205946
     10.03750      8.77025     16.31155        -0.019576     -0.030137     -0.007365
     12.21856      8.44063     18.90399         0.004408     -0.002274     -0.000990
      9.92573     12.53963     13.94940         0.009524     -0.010007     -0.012009
     14.00424      8.34474     17.48475         0.014502      0.007619     -0.014470
      8.69638     12.51235     15.87272        -0.000962     -0.008970     -0.006467
     11.59585     10.91248     18.00405        -0.003088      0.027906      0.001754
     10.80676     11.73881     17.32413         0.014462      0.000568      0.015657
     12.00775     11.27460     15.34966         0.015597      0.006062      0.006731
     12.77031     10.42870     16.01634         0.000022      0.010594     -0.006329
      9.00415      8.83782     17.29698         0.009746     -0.000898      0.004928
      9.64563      8.91037     15.00349         0.000481     -0.023240     -0.011211
      8.40166      9.11114     14.53849         0.009179      0.011122     -0.017748
      6.86835      8.56982     12.51793         0.002237     -0.016113      0.006994
      6.90140      7.80508     11.21768        -0.003113     -0.034242     -0.003657
      5.55887      7.92905     10.44419        -0.011325     -0.021256     -0.020616
      5.74857     11.12849     10.58407        -0.006061      0.020816     -0.015380
      5.70263     10.26980      9.34720        -0.003670     -0.021851     -0.028370
      5.63679      8.90157      9.30263        -0.009387      0.017052     -0.022628
      7.07416     10.97176     11.38639         0.004685      0.040022     -0.000162
      8.10248      9.23589     13.10175         0.001371      0.009847      0.020270
      6.93677     10.07511     12.59701         0.010738      0.018458      0.010874
     12.69722      7.23271     19.53892        -0.003932      0.002449      0.004121
      7.57882     13.04692     15.12826        -0.001356     -0.010455     -0.006062
     12.98387      8.87608     17.87997        -0.007068      0.010455     -0.007547
      9.80821     12.30415     15.13697         0.007843     -0.001446     -0.001271
     12.37524     10.10405     17.26331        -0.008163      0.017490     -0.013253
     10.89632     11.70401     15.98578         0.023850      0.007169      0.008346
     10.51447      8.84618     14.34460         0.000515     -0.000434      0.010153
      9.50433      8.73375     18.26670        -0.006114     -0.000326     -0.006428
      8.27736      8.02083     17.15158        -0.000928     -0.006314      0.018519
      8.48179      9.80870     17.25129        -0.000647      0.001885      0.018951
      7.55289      9.16355     15.22566         0.005819      0.009413      0.008746
      6.30746     10.50219     13.38609        -0.005169      0.005103      0.003406
      6.20954      8.11426     13.26465        -0.003386     -0.003683      0.006115
      8.97691      9.24081     12.44385         0.008607      0.000621      0.005432
      7.86506     10.60038     10.71570         0.004521      0.027741     -0.000651
      7.41949     11.96312     11.72230         0.011389      0.005628     -0.003774
      4.89906     10.87014     11.24244        -0.007050      0.010627     -0.007308
      5.60800     12.18154     10.29953         0.000182      0.004472      0.009316
      4.77118      8.24309     11.15216        -0.009283     -0.016317     -0.002135
      5.25776      6.94371     10.05689        -0.006163     -0.003947      0.004959
      7.10977      6.74486     11.43377         0.003497     -0.003630     -0.004672
      7.72790      8.15659     10.58033         0.004801     -0.019415     -0.021608
     13.69449      7.39944     19.96735         0.006631     -0.003730      0.014676
     11.96711      7.00918     20.32303        -0.001416      0.001767      0.000915
     12.75187      6.41638     18.80597        -0.005075     -0.012279      0.003480
      6.76104     13.12705     15.85126        -0.000159      0.000380     -0.000316
      7.31641     12.36741     14.30645        -0.007896      0.001989      0.009964
      7.83477     14.03159     14.71465        -0.007886      0.015137     -0.001075
 -----------------------------------------------------------------------------------
    total drift:                               -0.000591     -0.002541      0.015122


--------------------------------------------------------------------------------------------------------



  FREE ENERGIE OF THE ION-ELECTRON SYSTEM (eV)
  ---------------------------------------------------
  free  energy   TOTEN  =      -928.65004910 eV

  energy  without entropy=     -928.65004909  energy(sigma->0) =     -928.65004910
 


--------------------------------------------------------------------------------------------------------


    POTLOK:  cpu time    0.8180: real time    0.8200


--------------------------------------------------------------------------------------------------------


 stress matrix after NEB project (eV)
      0.44036      0.00202      0.44844
      0.00202     39.24763      0.51582
      0.44844      0.51582      4.46443
  FORCES: max atom, RMS     0.180093    0.057341
  FORCE total and by dimension    0.762871    0.159527
  Stress total and by dimension   39.515005   39.247627
 
 OPT: Flag T
 OPT: CG Step
 OPT: CG fdstep
 OPT: CG gam      0.000000
     LOOP+:  cpu time 1370.3091: real time 1375.7262
    4ORBIT:  cpu time    0.0000: real time    0.0000

 total amount of memory used by VASP MPI-rank0   319072. kBytes
=======================================================================

   base      :      30000. kBytes
   nonlr-proj:      21042. kBytes
   fftplans  :      32865. kBytes
   grid      :      78704. kBytes
   one-center:         55. kBytes
   wavefun   :     156406. kBytes
 
  
  
 General timing and accounting informations for this job:
 ========================================================
  
                  Total CPU time used (sec):     1391.729
                            User time (sec):     1358.305
                          System time (sec):       33.425
                         Elapsed time (sec):     1402.860
  
                   Maximum memory used (kb):      442800.
                   Average memory used (kb):           0.
  
                          Minor page faults:       141725
                          Major page faults:            0
                 Voluntary context switches:         3125
