<?xml version="1.0" encoding="ISO-8859-1"?>
<modeling>
 <generator>
  <i name="program" type="string">vasp </i>
  <i name="version" type="string">5.4.1  </i>
  <i name="subversion" type="string">24Jun15 (build Apr 19 2016 10:17:20) complex                          parallel </i>
  <i name="platform" type="string">IFC91_ompi </i>
  <i name="date" type="string">2016 08 12 </i>
  <i name="time" type="string">13:11:39 </i>
 </generator>
 <incar>
  <i type="string" name="PREC">low</i>
  <i type="int" name="ISPIN">     1</i>
  <i type="int" name="ICHARG">    11</i>
  <i type="int" name="NELM">   800</i>
  <i type="int" name="IBRION">    -1</i>
  <i name="EDIFF">      0.00000000</i>
  <i type="int" name="NSW">     0</i>
  <i type="int" name="ISIF">     2</i>
  <i type="int" name="ISYM">     0</i>
  <i type="int" name="NEDOS">  1000</i>
  <i name="EMIN">    -20.00000000</i>
  <i name="EMAX">     10.00000000</i>
  <i type="int" name="ISMEAR">    -1</i>
  <i name="SIGMA">      0.10000000</i>
  <i type="int" name="NWRITE">     3</i>
  <i type="logical" name="LWAVE"> F  </i>
  <i type="logical" name="LCHARG"> T  </i>
  <i type="logical" name="LVTOT"> T  </i>
  <i type="logical" name="LORBIT"> F  </i>
  <v type="int" name="KPOINT_BSE">    -1     0     0     0</v>
  <i type="int" name="NELM">   800</i>
 </incar>
 <kpoints>
  <generation param="listgenerated">
   <i name="divisions" type="int">      20 </i>
   <v>       0.00000000       0.00000000       0.00000000 </v>
   <v>       0.50000000       0.00000000       0.50000000 </v>
   <v>       0.50000000       0.25000000       0.75000000 </v>
   <v>       0.37500000       0.37500000       0.75000000 </v>
   <v>       0.00000000       0.00000000       0.00000000 </v>
   <v>       0.50000000       0.50000000       0.50000000 </v>
   <v>       0.62500000       0.25000000       0.62500000 </v>
   <v>       0.50000000       0.25000000       0.75000000 </v>
   <v>       0.50000000       0.50000000       0.50000000 </v>
   <v>       0.62500000       0.25000000       0.62500000 </v>
   <v>       0.50000000       0.00000000       0.50000000 </v>
  </generation>
  <varray name="kpointlist" >
   <v>       0.00000000       0.00000000       0.00000000 </v>
   <v>       0.02631579       0.00000000       0.02631579 </v>
   <v>       0.05263158       0.00000000       0.05263158 </v>
   <v>       0.07894737       0.00000000       0.07894737 </v>
   <v>       0.10526316       0.00000000       0.10526316 </v>
   <v>       0.13157895       0.00000000       0.13157895 </v>
   <v>       0.15789474       0.00000000       0.15789474 </v>
   <v>       0.18421053       0.00000000       0.18421053 </v>
   <v>       0.21052632       0.00000000       0.21052632 </v>
   <v>       0.23684211       0.00000000       0.23684211 </v>
   <v>       0.26315789       0.00000000       0.26315789 </v>
   <v>       0.28947368       0.00000000       0.28947368 </v>
   <v>       0.31578947       0.00000000       0.31578947 </v>
   <v>       0.34210526       0.00000000       0.34210526 </v>
   <v>       0.36842105       0.00000000       0.36842105 </v>
   <v>       0.39473684       0.00000000       0.39473684 </v>
   <v>       0.42105263       0.00000000       0.42105263 </v>
   <v>       0.44736842       0.00000000       0.44736842 </v>
   <v>       0.47368421       0.00000000       0.47368421 </v>
   <v>       0.50000000       0.00000000       0.50000000 </v>
   <v>       0.50000000       0.00000000       0.50000000 </v>
   <v>       0.50000000       0.01315789       0.51315789 </v>
   <v>       0.50000000       0.02631579       0.52631579 </v>
   <v>       0.50000000       0.03947368       0.53947368 </v>
   <v>       0.50000000       0.05263158       0.55263158 </v>
   <v>       0.50000000       0.06578947       0.56578947 </v>
   <v>       0.50000000       0.07894737       0.57894737 </v>
   <v>       0.50000000       0.09210526       0.59210526 </v>
   <v>       0.50000000       0.10526316       0.60526316 </v>
   <v>       0.50000000       0.11842105       0.61842105 </v>
   <v>       0.50000000       0.13157895       0.63157895 </v>
   <v>       0.50000000       0.14473684       0.64473684 </v>
   <v>       0.50000000       0.15789474       0.65789474 </v>
   <v>       0.50000000       0.17105263       0.67105263 </v>
   <v>       0.50000000       0.18421053       0.68421053 </v>
   <v>       0.50000000       0.19736842       0.69736842 </v>
   <v>       0.50000000       0.21052632       0.71052632 </v>
   <v>       0.50000000       0.22368421       0.72368421 </v>
   <v>       0.50000000       0.23684211       0.73684211 </v>
   <v>       0.50000000       0.25000000       0.75000000 </v>
   <v>       0.50000000       0.25000000       0.75000000 </v>
   <v>       0.49342105       0.25657895       0.75000000 </v>
   <v>       0.48684211       0.26315789       0.75000000 </v>
   <v>       0.48026316       0.26973684       0.75000000 </v>
   <v>       0.47368421       0.27631579       0.75000000 </v>
   <v>       0.46710526       0.28289474       0.75000000 </v>
   <v>       0.46052632       0.28947368       0.75000000 </v>
   <v>       0.45394737       0.29605263       0.75000000 </v>
   <v>       0.44736842       0.30263158       0.75000000 </v>
   <v>       0.44078947       0.30921053       0.75000000 </v>
   <v>       0.43421053       0.31578947       0.75000000 </v>
   <v>       0.42763158       0.32236842       0.75000000 </v>
   <v>       0.42105263       0.32894737       0.75000000 </v>
   <v>       0.41447368       0.33552632       0.75000000 </v>
   <v>       0.40789474       0.34210526       0.75000000 </v>
   <v>       0.40131579       0.34868421       0.75000000 </v>
   <v>       0.39473684       0.35526316       0.75000000 </v>
   <v>       0.38815789       0.36184211       0.75000000 </v>
   <v>       0.38157895       0.36842105       0.75000000 </v>
   <v>       0.37500000       0.37500000       0.75000000 </v>
   <v>       0.37500000       0.37500000       0.75000000 </v>
   <v>       0.35526316       0.35526316       0.71052632 </v>
   <v>       0.33552632       0.33552632       0.67105263 </v>
   <v>       0.31578947       0.31578947       0.63157895 </v>
   <v>       0.29605263       0.29605263       0.59210526 </v>
   <v>       0.27631579       0.27631579       0.55263158 </v>
   <v>       0.25657895       0.25657895       0.51315789 </v>
   <v>       0.23684211       0.23684211       0.47368421 </v>
   <v>       0.21710526       0.21710526       0.43421053 </v>
   <v>       0.19736842       0.19736842       0.39473684 </v>
   <v>       0.17763158       0.17763158       0.35526316 </v>
   <v>       0.15789474       0.15789474       0.31578947 </v>
   <v>       0.13815789       0.13815789       0.27631579 </v>
   <v>       0.11842105       0.11842105       0.23684211 </v>
   <v>       0.09868421       0.09868421       0.19736842 </v>
   <v>       0.07894737       0.07894737       0.15789474 </v>
   <v>       0.05921053       0.05921053       0.11842105 </v>
   <v>       0.03947368       0.03947368       0.07894737 </v>
   <v>       0.01973684       0.01973684       0.03947368 </v>
   <v>       0.00000000       0.00000000       0.00000000 </v>
   <v>       0.00000000       0.00000000       0.00000000 </v>
   <v>       0.02631579       0.02631579       0.02631579 </v>
   <v>       0.05263158       0.05263158       0.05263158 </v>
   <v>       0.07894737       0.07894737       0.07894737 </v>
   <v>       0.10526316       0.10526316       0.10526316 </v>
   <v>       0.13157895       0.13157895       0.13157895 </v>
   <v>       0.15789474       0.15789474       0.15789474 </v>
   <v>       0.18421053       0.18421053       0.18421053 </v>
   <v>       0.21052632       0.21052632       0.21052632 </v>
   <v>       0.23684211       0.23684211       0.23684211 </v>
   <v>       0.26315789       0.26315789       0.26315789 </v>
   <v>       0.28947368       0.28947368       0.28947368 </v>
   <v>       0.31578947       0.31578947       0.31578947 </v>
   <v>       0.34210526       0.34210526       0.34210526 </v>
   <v>       0.36842105       0.36842105       0.36842105 </v>
   <v>       0.39473684       0.39473684       0.39473684 </v>
   <v>       0.42105263       0.42105263       0.42105263 </v>
   <v>       0.44736842       0.44736842       0.44736842 </v>
   <v>       0.47368421       0.47368421       0.47368421 </v>
   <v>       0.50000000       0.50000000       0.50000000 </v>
   <v>       0.50000000       0.50000000       0.50000000 </v>
   <v>       0.50657895       0.48684211       0.50657895 </v>
   <v>       0.51315789       0.47368421       0.51315789 </v>
   <v>       0.51973684       0.46052632       0.51973684 </v>
   <v>       0.52631579       0.44736842       0.52631579 </v>
   <v>       0.53289474       0.43421053       0.53289474 </v>
   <v>       0.53947368       0.42105263       0.53947368 </v>
   <v>       0.54605263       0.40789474       0.54605263 </v>
   <v>       0.55263158       0.39473684       0.55263158 </v>
   <v>       0.55921053       0.38157895       0.55921053 </v>
   <v>       0.56578947       0.36842105       0.56578947 </v>
   <v>       0.57236842       0.35526316       0.57236842 </v>
   <v>       0.57894737       0.34210526       0.57894737 </v>
   <v>       0.58552632       0.32894737       0.58552632 </v>
   <v>       0.59210526       0.31578947       0.59210526 </v>
   <v>       0.59868421       0.30263158       0.59868421 </v>
   <v>       0.60526316       0.28947368       0.60526316 </v>
   <v>       0.61184211       0.27631579       0.61184211 </v>
   <v>       0.61842105       0.26315789       0.61842105 </v>
   <v>       0.62500000       0.25000000       0.62500000 </v>
   <v>       0.62500000       0.25000000       0.62500000 </v>
   <v>       0.61842105       0.25000000       0.63157895 </v>
   <v>       0.61184211       0.25000000       0.63815789 </v>
   <v>       0.60526316       0.25000000       0.64473684 </v>
   <v>       0.59868421       0.25000000       0.65131579 </v>
   <v>       0.59210526       0.25000000       0.65789474 </v>
   <v>       0.58552632       0.25000000       0.66447368 </v>
   <v>       0.57894737       0.25000000       0.67105263 </v>
   <v>       0.57236842       0.25000000       0.67763158 </v>
   <v>       0.56578947       0.25000000       0.68421053 </v>
   <v>       0.55921053       0.25000000       0.69078947 </v>
   <v>       0.55263158       0.25000000       0.69736842 </v>
   <v>       0.54605263       0.25000000       0.70394737 </v>
   <v>       0.53947368       0.25000000       0.71052632 </v>
   <v>       0.53289474       0.25000000       0.71710526 </v>
   <v>       0.52631579       0.25000000       0.72368421 </v>
   <v>       0.51973684       0.25000000       0.73026316 </v>
   <v>       0.51315789       0.25000000       0.73684211 </v>
   <v>       0.50657895       0.25000000       0.74342105 </v>
   <v>       0.50000000       0.25000000       0.75000000 </v>
   <v>       0.50000000       0.25000000       0.75000000 </v>
   <v>       0.50000000       0.26315789       0.73684211 </v>
   <v>       0.50000000       0.27631579       0.72368421 </v>
   <v>       0.50000000       0.28947368       0.71052632 </v>
   <v>       0.50000000       0.30263158       0.69736842 </v>
   <v>       0.50000000       0.31578947       0.68421053 </v>
   <v>       0.50000000       0.32894737       0.67105263 </v>
   <v>       0.50000000       0.34210526       0.65789474 </v>
   <v>       0.50000000       0.35526316       0.64473684 </v>
   <v>       0.50000000       0.36842105       0.63157895 </v>
   <v>       0.50000000       0.38157895       0.61842105 </v>
   <v>       0.50000000       0.39473684       0.60526316 </v>
   <v>       0.50000000       0.40789474       0.59210526 </v>
   <v>       0.50000000       0.42105263       0.57894737 </v>
   <v>       0.50000000       0.43421053       0.56578947 </v>
   <v>       0.50000000       0.44736842       0.55263158 </v>
   <v>       0.50000000       0.46052632       0.53947368 </v>
   <v>       0.50000000       0.47368421       0.52631579 </v>
   <v>       0.50000000       0.48684211       0.51315789 </v>
   <v>       0.50000000       0.50000000       0.50000000 </v>
   <v>       0.50000000       0.50000000       0.50000000 </v>
   <v>       0.49342105       0.49342105       0.51315789 </v>
   <v>       0.48684211       0.48684211       0.52631579 </v>
   <v>       0.48026316       0.48026316       0.53947368 </v>
   <v>       0.47368421       0.47368421       0.55263158 </v>
   <v>       0.46710526       0.46710526       0.56578947 </v>
   <v>       0.46052632       0.46052632       0.57894737 </v>
   <v>       0.45394737       0.45394737       0.59210526 </v>
   <v>       0.44736842       0.44736842       0.60526316 </v>
   <v>       0.44078947       0.44078947       0.61842105 </v>
   <v>       0.43421053       0.43421053       0.63157895 </v>
   <v>       0.42763158       0.42763158       0.64473684 </v>
   <v>       0.42105263       0.42105263       0.65789474 </v>
   <v>       0.41447368       0.41447368       0.67105263 </v>
   <v>       0.40789474       0.40789474       0.68421053 </v>
   <v>       0.40131579       0.40131579       0.69736842 </v>
   <v>       0.39473684       0.39473684       0.71052632 </v>
   <v>       0.38815789       0.38815789       0.72368421 </v>
   <v>       0.38157895       0.38157895       0.73684211 </v>
   <v>       0.37500000       0.37500000       0.75000000 </v>
   <v>       0.62500000       0.25000000       0.62500000 </v>
   <v>       0.61842105       0.23684211       0.61842105 </v>
   <v>       0.61184211       0.22368421       0.61184211 </v>
   <v>       0.60526316       0.21052632       0.60526316 </v>
   <v>       0.59868421       0.19736842       0.59868421 </v>
   <v>       0.59210526       0.18421053       0.59210526 </v>
   <v>       0.58552632       0.17105263       0.58552632 </v>
   <v>       0.57894737       0.15789474       0.57894737 </v>
   <v>       0.57236842       0.14473684       0.57236842 </v>
   <v>       0.56578947       0.13157895       0.56578947 </v>
   <v>       0.55921053       0.11842105       0.55921053 </v>
   <v>       0.55263158       0.10526316       0.55263158 </v>
   <v>       0.54605263       0.09210526       0.54605263 </v>
   <v>       0.53947368       0.07894737       0.53947368 </v>
   <v>       0.53289474       0.06578947       0.53289474 </v>
   <v>       0.52631579       0.05263158       0.52631579 </v>
   <v>       0.51973684       0.03947368       0.51973684 </v>
   <v>       0.51315789       0.02631579       0.51315789 </v>
   <v>       0.50657895       0.01315789       0.50657895 </v>
   <v>       0.50000000       0.00000000       0.50000000 </v>
  </varray>
  <varray name="weights" >
   <v>       0.00500000 </v>
   <v>       0.00500000 </v>
   <v>       0.00500000 </v>
   <v>       0.00500000 </v>
   <v>       0.00500000 </v>
   <v>       0.00500000 </v>
   <v>       0.00500000 </v>
   <v>       0.00500000 </v>
   <v>       0.00500000 </v>
   <v>       0.00500000 </v>
   <v>       0.00500000 </v>
   <v>       0.00500000 </v>
   <v>       0.00500000 </v>
   <v>       0.00500000 </v>
   <v>       0.00500000 </v>
   <v>       0.00500000 </v>
   <v>       0.00500000 </v>
   <v>       0.00500000 </v>
   <v>       0.00500000 </v>
   <v>       0.00500000 </v>
   <v>       0.00500000 </v>
   <v>       0.00500000 </v>
   <v>       0.00500000 </v>
   <v>       0.00500000 </v>
   <v>       0.00500000 </v>
   <v>       0.00500000 </v>
   <v>       0.00500000 </v>
   <v>       0.00500000 </v>
   <v>       0.00500000 </v>
   <v>       0.00500000 </v>
   <v>       0.00500000 </v>
   <v>       0.00500000 </v>
   <v>       0.00500000 </v>
   <v>       0.00500000 </v>
   <v>       0.00500000 </v>
   <v>       0.00500000 </v>
   <v>       0.00500000 </v>
   <v>       0.00500000 </v>
   <v>       0.00500000 </v>
   <v>       0.00500000 </v>
   <v>       0.00500000 </v>
   <v>       0.00500000 </v>
   <v>       0.00500000 </v>
   <v>       0.00500000 </v>
   <v>       0.00500000 </v>
   <v>       0.00500000 </v>
   <v>       0.00500000 </v>
   <v>       0.00500000 </v>
   <v>       0.00500000 </v>
   <v>       0.00500000 </v>
   <v>       0.00500000 </v>
   <v>       0.00500000 </v>
   <v>       0.00500000 </v>
   <v>       0.00500000 </v>
   <v>       0.00500000 </v>
   <v>       0.00500000 </v>
   <v>       0.00500000 </v>
   <v>       0.00500000 </v>
   <v>       0.00500000 </v>
   <v>       0.00500000 </v>
   <v>       0.00500000 </v>
   <v>       0.00500000 </v>
   <v>       0.00500000 </v>
   <v>       0.00500000 </v>
   <v>       0.00500000 </v>
   <v>       0.00500000 </v>
   <v>       0.00500000 </v>
   <v>       0.00500000 </v>
   <v>       0.00500000 </v>
   <v>       0.00500000 </v>
   <v>       0.00500000 </v>
   <v>       0.00500000 </v>
   <v>       0.00500000 </v>
   <v>       0.00500000 </v>
   <v>       0.00500000 </v>
   <v>       0.00500000 </v>
   <v>       0.00500000 </v>
   <v>       0.00500000 </v>
   <v>       0.00500000 </v>
   <v>       0.00500000 </v>
   <v>       0.00500000 </v>
   <v>       0.00500000 </v>
   <v>       0.00500000 </v>
   <v>       0.00500000 </v>
   <v>       0.00500000 </v>
   <v>       0.00500000 </v>
   <v>       0.00500000 </v>
   <v>       0.00500000 </v>
   <v>       0.00500000 </v>
   <v>       0.00500000 </v>
   <v>       0.00500000 </v>
   <v>       0.00500000 </v>
   <v>       0.00500000 </v>
   <v>       0.00500000 </v>
   <v>       0.00500000 </v>
   <v>       0.00500000 </v>
   <v>       0.00500000 </v>
   <v>       0.00500000 </v>
   <v>       0.00500000 </v>
   <v>       0.00500000 </v>
   <v>       0.00500000 </v>
   <v>       0.00500000 </v>
   <v>       0.00500000 </v>
   <v>       0.00500000 </v>
   <v>       0.00500000 </v>
   <v>       0.00500000 </v>
   <v>       0.00500000 </v>
   <v>       0.00500000 </v>
   <v>       0.00500000 </v>
   <v>       0.00500000 </v>
   <v>       0.00500000 </v>
   <v>       0.00500000 </v>
   <v>       0.00500000 </v>
   <v>       0.00500000 </v>
   <v>       0.00500000 </v>
   <v>       0.00500000 </v>
   <v>       0.00500000 </v>
   <v>       0.00500000 </v>
   <v>       0.00500000 </v>
   <v>       0.00500000 </v>
   <v>       0.00500000 </v>
   <v>       0.00500000 </v>
   <v>       0.00500000 </v>
   <v>       0.00500000 </v>
   <v>       0.00500000 </v>
   <v>       0.00500000 </v>
   <v>       0.00500000 </v>
   <v>       0.00500000 </v>
   <v>       0.00500000 </v>
   <v>       0.00500000 </v>
   <v>       0.00500000 </v>
   <v>       0.00500000 </v>
   <v>       0.00500000 </v>
   <v>       0.00500000 </v>
   <v>       0.00500000 </v>
   <v>       0.00500000 </v>
   <v>       0.00500000 </v>
   <v>       0.00500000 </v>
   <v>       0.00500000 </v>
   <v>       0.00500000 </v>
   <v>       0.00500000 </v>
   <v>       0.00500000 </v>
   <v>       0.00500000 </v>
   <v>       0.00500000 </v>
   <v>       0.00500000 </v>
   <v>       0.00500000 </v>
   <v>       0.00500000 </v>
   <v>       0.00500000 </v>
   <v>       0.00500000 </v>
   <v>       0.00500000 </v>
   <v>       0.00500000 </v>
   <v>       0.00500000 </v>
   <v>       0.00500000 </v>
   <v>       0.00500000 </v>
   <v>       0.00500000 </v>
   <v>       0.00500000 </v>
   <v>       0.00500000 </v>
   <v>       0.00500000 </v>
   <v>       0.00500000 </v>
   <v>       0.00500000 </v>
   <v>       0.00500000 </v>
   <v>       0.00500000 </v>
   <v>       0.00500000 </v>
   <v>       0.00500000 </v>
   <v>       0.00500000 </v>
   <v>       0.00500000 </v>
   <v>       0.00500000 </v>
   <v>       0.00500000 </v>
   <v>       0.00500000 </v>
   <v>       0.00500000 </v>
   <v>       0.00500000 </v>
   <v>       0.00500000 </v>
   <v>       0.00500000 </v>
   <v>       0.00500000 </v>
   <v>       0.00500000 </v>
   <v>       0.00500000 </v>
   <v>       0.00500000 </v>
   <v>       0.00500000 </v>
   <v>       0.00500000 </v>
   <v>       0.00500000 </v>
   <v>       0.00500000 </v>
   <v>       0.00500000 </v>
   <v>       0.00500000 </v>
   <v>       0.00500000 </v>
   <v>       0.00500000 </v>
   <v>       0.00500000 </v>
   <v>       0.00500000 </v>
   <v>       0.00500000 </v>
   <v>       0.00500000 </v>
   <v>       0.00500000 </v>
   <v>       0.00500000 </v>
   <v>       0.00500000 </v>
   <v>       0.00500000 </v>
   <v>       0.00500000 </v>
   <v>       0.00500000 </v>
   <v>       0.00500000 </v>
   <v>       0.00500000 </v>
   <v>       0.00500000 </v>
   <v>       0.00500000 </v>
   <v>       0.00500000 </v>
  </varray>
 </kpoints>
 <parameters>
  <separator name="general" >
   <i type="string" name="SYSTEM">unknown system</i>
   <i type="logical" name="LCOMPAT"> F  </i>
  </separator>
  <separator name="electronic" >
   <i type="string" name="PREC">low</i>
   <i name="ENMAX">    180.83000000</i>
   <i name="ENAUG">    439.82500000</i>
   <i name="EDIFF">      0.00000000</i>
   <i type="int" name="IALGO">    38</i>
   <i type="int" name="IWAVPR">    10</i>
   <i type="int" name="NBANDS">    32</i>
   <i name="NELECT">     28.00000000</i>
   <i type="int" name="TURBO">     0</i>
   <i type="int" name="IRESTART">     0</i>
   <i type="int" name="NREBOOT">     0</i>
   <i type="int" name="NMIN">     0</i>
   <i name="EREF">      0.00000000</i>
   <separator name="electronic smearing" >
    <i type="int" name="ISMEAR">    -1</i>
    <i name="SIGMA">      0.10000000</i>
    <i name="KSPACING">      0.50000000</i>
    <i type="logical" name="KGAMMA"> T  </i>
   </separator>
   <separator name="electronic projectors" >
    <i type="logical" name="LREAL"> F  </i>
    <v name="ROPT">      0.00000000</v>
    <i type="int" name="LMAXPAW">  -100</i>
    <i type="int" name="LMAXMIX">     2</i>
    <i type="logical" name="NLSPLINE"> F  </i>
   </separator>
   <separator name="electronic startup" >
    <i type="int" name="ISTART">     0</i>
    <i type="int" name="ICHARG">    11</i>
    <i type="int" name="INIWAV">     1</i>
   </separator>
   <separator name="electronic spin" >
    <i type="int" name="ISPIN">     1</i>
    <i type="logical" name="LNONCOLLINEAR"> F  </i>
    <v name="MAGMOM">      1.00000000      1.00000000</v>
    <i name="NUPDOWN">     -1.00000000</i>
    <i type="logical" name="LSORBIT"> F  </i>
    <v name="SAXIS">      0.00000000      0.00000000      1.00000000</v>
    <i type="logical" name="LSPIRAL"> F  </i>
    <v name="QSPIRAL">      0.00000000      0.00000000      0.00000000</v>
    <i type="logical" name="LZEROZ"> F  </i>
   </separator>
   <separator name="electronic exchange-correlation" >
    <i type="logical" name="LASPH"> F  </i>
    <i type="logical" name="LMETAGGA"> F  </i>
   </separator>
   <separator name="electronic convergence" >
    <i type="int" name="NELM">   800</i>
    <i type="int" name="NELMDL">    -5</i>
    <i type="int" name="NELMIN">     2</i>
    <i name="ENINI">    180.83000000</i>
    <separator name="electronic convergence detail" >
     <i type="logical" name="LDIAG"> T  </i>
     <i type="logical" name="LSUBROT"> F  </i>
     <i name="WEIMIN">      0.00000000</i>
     <i name="EBREAK">      0.00000000</i>
     <i name="DEPER">      0.30000000</i>
     <i type="int" name="NRMM">     4</i>
     <i name="TIME">      0.40000000</i>
    </separator>
   </separator>
   <separator name="electronic mixer" >
    <i name="AMIX">      0.40000000</i>
    <i name="BMIX">      1.00000000</i>
    <i name="AMIN">      0.10000000</i>
    <i name="AMIX_MAG">      1.60000000</i>
    <i name="BMIX_MAG">      1.00000000</i>
    <separator name="electronic mixer details" >
     <i type="int" name="IMIX">     4</i>
     <i type="logical" name="MIXFIRST"> F  </i>
     <i type="int" name="MAXMIX">   -45</i>
     <i name="WC">    100.00000000</i>
     <i type="int" name="INIMIX">     1</i>
     <i type="int" name="MIXPRE">     1</i>
     <i type="int" name="MREMOVE">     5</i>
    </separator>
   </separator>
   <separator name="electronic dipolcorrection" >
    <i type="logical" name="LDIPOL"> F  </i>
    <i type="logical" name="LMONO"> F  </i>
    <i type="int" name="IDIPOL">     0</i>
    <i name="EPSILON">      1.00000000</i>
    <v name="DIPOL">   -100.00000000   -100.00000000   -100.00000000</v>
    <i name="EFIELD">      0.00000000</i>
   </separator>
  </separator>
  <separator name="grids" >
   <i type="int" name="NGX">    16</i>
   <i type="int" name="NGY">    16</i>
   <i type="int" name="NGZ">    16</i>
   <i type="int" name="NGXF">    24</i>
   <i type="int" name="NGYF">    24</i>
   <i type="int" name="NGZF">    24</i>
   <i type="logical" name="ADDGRID"> F  </i>
  </separator>
  <separator name="ionic" >
   <i type="int" name="NSW">     0</i>
   <i type="int" name="IBRION">    -1</i>
   <i type="int" name="ISIF">     2</i>
   <i name="PSTRESS">      0.00000000</i>
   <i name="EDIFFG">      0.00000000</i>
   <i type="int" name="NFREE">     0</i>
   <i name="POTIM">      0.50000000</i>
   <i name="SMASS">     -3.00000000</i>
   <i name="SCALEE">      1.00000000</i>
  </separator>
  <separator name="ionic md" >
   <i name="TEBEG">      0.00010000</i>
   <i name="TEEND">      0.00010000</i>
   <i type="int" name="NBLOCK">     1</i>
   <i type="int" name="KBLOCK">     1</i>
   <i type="int" name="NPACO">   256</i>
   <i name="APACO">     16.00000000</i>
  </separator>
  <separator name="symmetry" >
   <i type="int" name="ISYM">     0</i>
   <i name="SYMPREC">      0.00001000</i>
  </separator>
  <separator name="dos" >
   <i type="logical" name="LORBIT"> F  </i>
   <v name="RWIGS">     -1.00000000</v>
   <i type="int" name="NEDOS">  1000</i>
   <i name="EMIN">    -20.00000000</i>
   <i name="EMAX">     10.00000000</i>
   <i name="EFERMI">      0.00000000</i>
  </separator>
  <separator name="writing" >
   <i type="int" name="NWRITE">     3</i>
   <i type="logical" name="LWAVE"> F  </i>
   <i type="logical" name="LCHARG"> T  </i>
   <i type="logical" name="LPARD"> F  </i>
   <i type="logical" name="LVTOT"> T  </i>
   <i type="logical" name="LVHAR"> F  </i>
   <i type="logical" name="LELF"> F  </i>
   <i type="logical" name="LOPTICS"> F  </i>
   <v name="STM">      0.00000000      0.00000000      0.00000000      0.00000000      0.00000000      0.00000000      0.00000000</v>
  </separator>
  <separator name="performance" >
   <i type="int" name="NPAR">    32</i>
   <i type="int" name="NSIM">     4</i>
   <i type="int" name="NBLK">    -1</i>
   <i type="logical" name="LPLANE"> T  </i>
   <i type="logical" name="LSCALAPACK"> T  </i>
   <i type="logical" name="LSCAAWARE"> T  </i>
   <i type="logical" name="LSCALU"> F  </i>
   <i type="logical" name="LASYNC"> F  </i>
   <i type="logical" name="LORBITALREAL"> F  </i>
  </separator>
  <separator name="miscellaneous" >
   <i type="int" name="IDIOT">     3</i>
   <i type="logical" name="LMUSIC"> F  </i>
   <v name="POMASS">    118.71000000</v>
   <v name="DARWINR">      0.00000000</v>
   <v name="DARWINV">      1.00000000</v>
   <i type="logical" name="LCORR"> T  </i>
  </separator>
  <i type="logical" name="GGA_COMPAT"> T  </i>
  <i type="logical" name="LBERRY"> F  </i>
  <i type="int" name="ICORELEVEL">     0</i>
  <i type="logical" name="LDAU"> F  </i>
  <i type="int" name="I_CONSTRAINED_M">     0</i>
  <separator name="electronic exchange-correlation" >
   <i type="string" name="GGA">--</i>
   <i type="int" name="VOSKOWN">     0</i>
   <i type="logical" name="LHFCALC"> F  </i>
   <i type="string" name="PRECFOCK"></i>
   <i type="logical" name="LSYMGRAD"> F  </i>
   <i type="logical" name="LHFONE"> F  </i>
   <i type="logical" name="LRHFCALC"> F  </i>
   <i type="logical" name="LTHOMAS"> F  </i>
   <i type="logical" name="LMODELHF"> F  </i>
   <i name="ENCUT4O">     -1.00000000</i>
   <i type="int" name="EXXOEP">     0</i>
   <i type="int" name="FOURORBIT">     0</i>
   <i name="AEXX">      0.00000000</i>
   <i name="HFALPHA">      0.00000000</i>
   <i name="MCALPHA">      0.00000000</i>
   <i name="ALDAX">      1.00000000</i>
   <i name="AGGAX">      1.00000000</i>
   <i name="ALDAC">      1.00000000</i>
   <i name="AGGAC">      1.00000000</i>
   <i type="int" name="NKREDX">     1</i>
   <i type="int" name="NKREDY">     1</i>
   <i type="int" name="NKREDZ">     1</i>
   <i type="logical" name="SHIFTRED"> F  </i>
   <i type="logical" name="ODDONLY"> F  </i>
   <i type="logical" name="EVENONLY"> F  </i>
   <i type="int" name="LMAXFOCK">     0</i>
   <i type="int" name="NMAXFOCKAE">     0</i>
   <i type="logical" name="LFOCKAEDFT"> F  </i>
   <i name="HFSCREEN">      0.00000000</i>
   <i name="HFSCREENC">      0.00000000</i>
   <i type="int" name="NBANDSGWLOW">     0</i>
  </separator>
  <separator name="vdW DFT" >
   <i type="logical" name="LUSE_VDW"> F  </i>
   <i name="Zab_VDW">     -0.84910000</i>
   <i name="PARAM1">      0.12340000</i>
   <i name="PARAM2">      1.00000000</i>
   <i name="PARAM3">      0.00000000</i>
  </separator>
  <separator name="model GW" >
   <i type="int" name="MODEL_GW">     0</i>
   <i name="MODEL_EPS0">     23.22102790</i>
   <i name="MODEL_ALPHA">      1.00000000</i>
  </separator>
  <separator name="linear response parameters" >
   <i type="logical" name="LEPSILON"> F  </i>
   <i type="logical" name="LRPA"> F  </i>
   <i type="logical" name="LNABLA"> F  </i>
   <i type="logical" name="LVEL"> F  </i>
   <i type="int" name="KINTER">     0</i>
   <i name="CSHIFT">      0.10000000</i>
   <i name="OMEGAMAX">     -1.00000000</i>
   <i name="DEG_THRESHOLD">      0.00200000</i>
  </separator>
  <separator name="orbital magnetization" >
   <i type="logical" name="NUCIND"> F  </i>
   <v name="MAGPOS">      0.00000000      0.00000000      0.00000000</v>
   <i type="logical" name="LNICSALL"> T  </i>
   <i type="logical" name="ORBITALMAG"> F  </i>
   <i type="logical" name="LMAGBLOCH"> F  </i>
   <i type="logical" name="LCHIMAG"> F  </i>
   <i type="logical" name="LGAUGE"> T  </i>
   <i type="int" name="MAGATOM">     0</i>
   <v name="MAGDIPOL">      0.00000000      0.00000000      0.00000000</v>
   <v name="AVECCONST">      0.00000000      0.00000000      0.00000000</v>
  </separator>
  <separator name="response functions" >
   <i type="logical" name="LADDER"> F  </i>
   <i type="logical" name="LFXC"> F  </i>
   <i type="logical" name="LHARTREE"> T  </i>
   <i type="int" name="IBSE">     0</i>
   <v type="int" name="KPOINT">    -1     0     0     0</v>
   <i type="logical" name="LTCTE"> F  </i>
   <i type="logical" name="LTETE"> F  </i>
   <i type="logical" name="LTRIPLET"> F  </i>
   <i type="logical" name="LFXCEPS"> F  </i>
   <i type="logical" name="LFXHEG"> F  </i>
   <i type="int" name="NATURALO">     0</i>
   <i type="logical" name="L2ORDER"> F  </i>
   <i type="logical" name="LUSEW"> F  </i>
   <i name="ENCUTGW">     -2.00000000</i>
   <i name="ENCUTGWSOFT">     -2.00000000</i>
   <i name="ENCUTLF">     -1.00000000</i>
   <i type="int" name="LMAXMP2">    -1</i>
   <i name="SCISSOR">      0.00000000</i>
   <i type="int" name="NOMEGA">     0</i>
   <i type="int" name="NOMEGAR">     0</i>
   <i type="int" name="NBANDSGW">    -1</i>
   <i type="int" name="NBANDSO">    -1</i>
   <i type="int" name="NBANDSV">    -1</i>
   <i type="int" name="NELM">   800</i>
   <i type="int" name="NELMHF">     1</i>
   <i type="int" name="DIM">     3</i>
   <i type="int" name="ANTIRES">     0</i>
   <i name="OMEGAMAX">    -30.00000000</i>
   <i name="OMEGAMIN">    -30.00000000</i>
   <i name="OMEGATL">   -200.00000000</i>
   <i type="int" name="OMEGAGRID">     0</i>
   <i name="CSHIFT">     -0.10000000</i>
   <i type="logical" name="SELFENERGY"> F  </i>
   <i type="logical" name="LSPECTRAL"> F  </i>
   <i type="logical" name="LSPECTRALGW"> F  </i>
   <i type="logical" name="LSINGLES"> F  </i>
   <i type="logical" name="LFERMIGW"> F  </i>
   <i type="logical" name="ODDONLYGW"> F  </i>
   <i type="logical" name="EVENONLYGW"> F  </i>
   <i type="int" name="NKREDLFX">     1</i>
   <i type="int" name="NKREDLFY">     1</i>
   <i type="int" name="NKREDLFZ">     1</i>
   <i type="int" name="MAXMEM">  1800</i>
   <i type="int" name="TELESCOPE">     0</i>
   <i type="int" name="TAUPAR">     1</i>
   <i type="int" name="OMEGAPAR">    -1</i>
   <i name="LAMBDA">      1.00000000</i>
  </separator>
  <separator name="External order field" >
   <i name="OFIELD_KAPPA">      0.00000000</i>
   <v name="OFIELD_K">      0.00000000      0.00000000      0.00000000</v>
   <i name="OFIELD_Q6_NEAR">      0.00000000</i>
   <i name="OFIELD_Q6_FAR">      0.00000000</i>
   <i name="OFIELD_A">      0.00000000</i>
  </separator>
 </parameters>
 <atominfo>
  <atoms>       2 </atoms>
  <types>       1 </types>
  <array name="atoms" >
   <dimension dim="1">ion</dimension>
   <field type="string">element</field>
   <field type="int">atomtype</field>
   <set>
    <rc><c>Sn</c><c>   1</c></rc>
    <rc><c>Sn</c><c>   1</c></rc>
   </set>
  </array>
  <array name="atomtypes" >
   <dimension dim="1">type</dimension>
   <field type="int">atomspertype</field>
   <field type="string">element</field>
   <field>mass</field>
   <field>valence</field>
   <field type="string">pseudopotential</field>
   <set>
    <rc><c>   2</c><c>Sn</c><c>    118.71000000</c><c>     14.00000000</c><c>  PAW Sn_d 09Feb1998                    </c></rc>
   </set>
  </array>
 </atominfo>
 <structure name="initialpos" >
  <crystal>
   <varray name="basis" >
    <v>       4.78363896       0.00000000       0.00000000 </v>
    <v>       2.39181948       4.14275286       0.00000000 </v>
    <v>       2.39181948       1.38091762       3.90582486 </v>
   </varray>
   <i name="volume">     77.40342632 </i>
   <varray name="rec_basis" >
    <v>       0.20904588      -0.12069269      -0.08534262 </v>
    <v>       0.00000000       0.24138539      -0.08534262 </v>
    <v>       0.00000000       0.00000000       0.25602787 </v>
   </varray>
  </crystal>
  <varray name="positions" >
   <v>       0.00000000       0.00000000       0.00000000 </v>
   <v>       0.25000000       0.25000000       0.25000000 </v>
  </varray>
 </structure>
 <calculation>
  <scstep>
   <time name="dav">    1.84    1.84</time>
   <time name="total">    1.84    1.84</time>
   <energy>
    <i name="alphaZ">     56.74574784 </i>
    <i name="ewald">  -2247.34346385 </i>
    <i name="hartreedc">  -1292.64781403 </i>
    <i name="XCdc">    114.23183456 </i>
    <i name="pawpsdc">   3713.27080093 </i>
    <i name="pawaedc">  -3793.84157962 </i>
    <i name="eentropy">     -0.03475246 </i>
    <i name="bandstr">   -328.15495990 </i>
    <i name="atom">   3791.63627769 </i>
    <i name="e_fr_energy">     13.86209117 </i>
    <i name="e_wo_entrp">     13.89684363 </i>
    <i name="e_0_energy">     13.87946740 </i>
   </energy>
  </scstep>
  <scstep>
   <time name="dav">    2.68    2.69</time>
   <time name="total">    2.70    2.71</time>
   <energy>
    <i name="e_fr_energy">     -7.90550135 </i>
    <i name="e_wo_entrp">     -7.86939017 </i>
    <i name="e_0_energy">     -7.88744576 </i>
   </energy>
  </scstep>
  <scstep>
   <time name="dav">    2.68    2.68</time>
   <time name="total">    2.70    2.70</time>
   <energy>
    <i name="e_fr_energy">     -8.07393653 </i>
    <i name="e_wo_entrp">     -8.03770198 </i>
    <i name="e_0_energy">     -8.05581926 </i>
   </energy>
  </scstep>
  <scstep>
   <time name="dav">    5.24    5.25</time>
   <time name="total">    5.26    5.27</time>
   <energy>
    <i name="e_fr_energy">     -8.07468696 </i>
    <i name="e_wo_entrp">     -8.03845287 </i>
    <i name="e_0_energy">     -8.05656991 </i>
   </energy>
  </scstep>
  <scstep>
   <time name="dav">    2.73    2.73</time>
   <time name="total">    2.75    2.75</time>
   <energy>
    <i name="e_fr_energy">     -8.07468879 </i>
    <i name="e_wo_entrp">     -8.03845469 </i>
    <i name="e_0_energy">     -8.05657174 </i>
   </energy>
  </scstep>
  <scstep>
   <time name="dav">    4.98    4.99</time>
   <time name="total">    5.00    5.04</time>
   <energy>
    <i name="e_fr_energy">     -8.07468881 </i>
    <i name="e_wo_entrp">     -8.03845471 </i>
    <i name="e_0_energy">     -8.05657176 </i>
   </energy>
  </scstep>
  <scstep>
   <time name="dav">    2.73    2.74</time>
   <time name="total">    2.75    2.76</time>
   <energy>
    <i name="e_fr_energy">     -8.07468881 </i>
    <i name="e_wo_entrp">     -8.03845471 </i>
    <i name="e_0_energy">     -8.05657176 </i>
   </energy>
  </scstep>
  <scstep>
   <time name="dav">    5.22    5.23</time>
   <time name="total">    5.24    5.25</time>
   <energy>
    <i name="alphaZ">     56.74574784 </i>
    <i name="ewald">  -2247.34346385 </i>
    <i name="hartreedc">  -1292.64781403 </i>
    <i name="XCdc">    114.23183456 </i>
    <i name="pawpsdc">   3713.27080093 </i>
    <i name="pawaedc">  -3793.84157962 </i>
    <i name="eentropy">     -0.03623410 </i>
    <i name="bandstr">   -350.09025824 </i>
    <i name="atom">   3791.63627769 </i>
    <i name="e_fr_energy">     -8.07468881 </i>
    <i name="e_wo_entrp">     -8.03845471 </i>
    <i name="e_0_energy">     -8.05657176 </i>
   </energy>
  </scstep>
  <structure>
   <crystal>
    <varray name="basis" >
     <v>       4.78363896       0.00000000       0.00000000 </v>
     <v>       2.39181948       4.14275286       0.00000000 </v>
     <v>       2.39181948       1.38091762       3.90582486 </v>
    </varray>
    <i name="volume">     77.40342632 </i>
    <varray name="rec_basis" >
     <v>       0.20904588      -0.12069269      -0.08534262 </v>
     <v>       0.00000000       0.24138539      -0.08534262 </v>
     <v>       0.00000000       0.00000000       0.25602787 </v>
    </varray>
   </crystal>
   <varray name="positions" >
    <v>       0.00000000       0.00000000       0.00000000 </v>
    <v>       0.25000000       0.25000000       0.25000000 </v>
   </varray>
  </structure>
  <varray name="forces" >
   <v>       0.07411587       0.04055634       0.09665826 </v>
   <v>      -0.07411587      -0.04055634      -0.09665826 </v>
  </varray>
  <varray name="stress" >
   <v>    -421.61100184     -33.19394988     -36.72991457 </v>
   <v>     -33.19394970    -415.60740387     -27.90323293 </v>
   <v>     -36.72991502     -27.90323212    -381.13938367 </v>
  </varray>
  <energy>
   <i name="e_fr_energy">     -8.07468881 </i>
   <i name="e_wo_entrp">     -8.05657176 </i>
   <i name="e_0_energy">     -0.03623410 </i>
  </energy>
  <time name="totalsc">   28.66   28.73</time>
  <eigenvalues>
   <array>
    <dimension dim="1">band</dimension>
    <dimension dim="2">kpoint</dimension>
    <dimension dim="3">spin</dimension>
    <field>eigene</field>
    <field>occ</field>
    <set>
     <set comment="spin 1">
      <set comment="kpoint 1">
       <r>  -17.5213    1.0000 </r>
       <r>  -17.5213    1.0000 </r>
       <r>  -17.3302    1.0000 </r>
       <r>  -17.3302    1.0000 </r>
       <r>  -17.3295    1.0000 </r>
       <r>  -17.3151    1.0000 </r>
       <r>  -17.3151    1.0000 </r>
       <r>  -17.3144    1.0000 </r>
       <r>  -17.1968    1.0000 </r>
       <r>  -17.1968    1.0000 </r>
       <r>   -5.7621    1.0000 </r>
       <r>    2.4523    1.0000 </r>
       <r>    4.2029    0.2149 </r>
       <r>    4.2030    0.2147 </r>
       <r>    4.2030    0.2147 </r>
       <r>    6.2357    0.0000 </r>
       <r>    6.2358    0.0000 </r>
       <r>    6.2358    0.0000 </r>
       <r>    8.8604    0.0000 </r>
       <r>   11.8540    0.0000 </r>
       <r>   11.8540    0.0000 </r>
       <r>   12.3182    0.0000 </r>
       <r>   12.3183    0.0000 </r>
       <r>   12.3183    0.0000 </r>
       <r>   14.4643    0.0000 </r>
       <r>   21.6819    0.0000 </r>
       <r>   21.6819    0.0000 </r>
       <r>   21.6820    0.0000 </r>
       <r>   22.5868    0.0000 </r>
       <r>   22.5872    0.0000 </r>
       <r>   22.5872    0.0000 </r>
       <r>   24.1600    0.0000 </r>
      </set>
      <set comment="kpoint 2">
       <r>  -17.5208    1.0000 </r>
       <r>  -17.5208    1.0000 </r>
       <r>  -17.3363    1.0000 </r>
       <r>  -17.3359    1.0000 </r>
       <r>  -17.3290    1.0000 </r>
       <r>  -17.3155    1.0000 </r>
       <r>  -17.3079    1.0000 </r>
       <r>  -17.3075    1.0000 </r>
       <r>  -17.1968    1.0000 </r>
       <r>  -17.1963    1.0000 </r>
       <r>   -5.7542    1.0000 </r>
       <r>    2.3784    1.0000 </r>
       <r>    4.1659    0.2838 </r>
       <r>    4.1659    0.2837 </r>
       <r>    4.2741    0.1183 </r>
       <r>    6.2073    0.0000 </r>
       <r>    6.2828    0.0000 </r>
       <r>    6.2829    0.0000 </r>
       <r>    8.9079    0.0000 </r>
       <r>   11.6078    0.0000 </r>
       <r>   11.8615    0.0000 </r>
       <r>   12.3349    0.0000 </r>
       <r>   12.3349    0.0000 </r>
       <r>   12.5338    0.0000 </r>
       <r>   14.5399    0.0000 </r>
       <r>   21.5739    0.0000 </r>
       <r>   21.6189    0.0000 </r>
       <r>   21.6189    0.0000 </r>
       <r>   22.4490    0.0000 </r>
       <r>   22.4505    0.0000 </r>
       <r>   22.4508    0.0000 </r>
       <r>   24.1656    0.0000 </r>
      </set>
      <set comment="kpoint 3">
       <r>  -17.5194    1.0000 </r>
       <r>  -17.5193    1.0000 </r>
       <r>  -17.4174    1.0000 </r>
       <r>  -17.4169    1.0000 </r>
       <r>  -17.3426    1.0000 </r>
       <r>  -17.3178    1.0000 </r>
       <r>  -17.3099    1.0000 </r>
       <r>  -17.3094    1.0000 </r>
       <r>  -17.2359    1.0000 </r>
       <r>  -17.2041    1.0000 </r>
       <r>   -5.7308    1.0000 </r>
       <r>    2.1852    1.0000 </r>
       <r>    4.0640    0.5233 </r>
       <r>    4.0641    0.5231 </r>
       <r>    4.4581    0.0209 </r>
       <r>    6.1277    0.0000 </r>
       <r>    6.4141    0.0000 </r>
       <r>    6.4142    0.0000 </r>
       <r>    9.0442    0.0000 </r>
       <r>   11.2154    0.0000 </r>
       <r>   11.8839    0.0000 </r>
       <r>   12.3841    0.0000 </r>
       <r>   12.3841    0.0000 </r>
       <r>   12.8350    0.0000 </r>
       <r>   14.7664    0.0000 </r>
       <r>   21.2801    0.0000 </r>
       <r>   21.3667    0.0000 </r>
       <r>   21.3667    0.0000 </r>
       <r>   22.1029    0.0000 </r>
       <r>   22.2563    0.0000 </r>
       <r>   22.2567    0.0000 </r>
       <r>   24.1745    0.0000 </r>
      </set>
      <set comment="kpoint 4">
       <r>  -17.5172    1.0000 </r>
       <r>  -17.5171    1.0000 </r>
       <r>  -17.4830    1.0000 </r>
       <r>  -17.4825    1.0000 </r>
       <r>  -17.3747    1.0000 </r>
       <r>  -17.3217    1.0000 </r>
       <r>  -17.3085    1.0000 </r>
       <r>  -17.3080    1.0000 </r>
       <r>  -17.2553    1.0000 </r>
       <r>  -17.2358    1.0000 </r>
       <r>   -5.6917    1.0000 </r>
       <r>    1.9219    1.0000 </r>
       <r>    3.9179    0.8256 </r>
       <r>    3.9179    0.8255 </r>
       <r>    4.7030    0.0018 </r>
       <r>    6.0111    0.0000 </r>
       <r>    6.6097    0.0000 </r>
       <r>    6.6097    0.0000 </r>
       <r>    9.2547    0.0000 </r>
       <r>   10.8192    0.0000 </r>
       <r>   11.9213    0.0000 </r>
       <r>   12.4667    0.0000 </r>
       <r>   12.4667    0.0000 </r>
       <r>   13.0910    0.0000 </r>
       <r>   15.1347    0.0000 </r>
       <r>   20.8751    0.0000 </r>
       <r>   20.9374    0.0000 </r>
       <r>   20.9374    0.0000 </r>
       <r>   21.6478    0.0000 </r>
       <r>   22.1818    0.0000 </r>
       <r>   22.1821    0.0000 </r>
       <r>   24.1906    0.0000 </r>
      </set>
      <set comment="kpoint 5">
       <r>  -17.5139    1.0000 </r>
       <r>  -17.5139    1.0000 </r>
       <r>  -17.4888    1.0000 </r>
       <r>  -17.4884    1.0000 </r>
       <r>  -17.3713    1.0000 </r>
       <r>  -17.3266    1.0000 </r>
       <r>  -17.3036    1.0000 </r>
       <r>  -17.3031    1.0000 </r>
       <r>  -17.2594    1.0000 </r>
       <r>  -17.2339    1.0000 </r>
       <r>   -5.6370    1.0000 </r>
       <r>    1.6221    1.0000 </r>
       <r>    3.7468    0.9632 </r>
       <r>    3.7469    0.9632 </r>
       <r>    4.9710    0.0001 </r>
       <r>    5.8737    0.0000 </r>
       <r>    6.8498    0.0000 </r>
       <r>    6.8499    0.0000 </r>
       <r>    9.5236    0.0000 </r>
       <r>   10.4480    0.0000 </r>
       <r>   11.9737    0.0000 </r>
       <r>   12.5828    0.0000 </r>
       <r>   12.5829    0.0000 </r>
       <r>   13.3049    0.0000 </r>
       <r>   15.6186    0.0000 </r>
       <r>   20.4203    0.0000 </r>
       <r>   20.4203    0.0000 </r>
       <r>   20.4487    0.0000 </r>
       <r>   21.1453    0.0000 </r>
       <r>   22.1941    0.0000 </r>
       <r>   22.1944    0.0000 </r>
       <r>   24.2266    0.0000 </r>
      </set>
      <set comment="kpoint 6">
       <r>  -17.5146    1.0000 </r>
       <r>  -17.5050    1.0000 </r>
       <r>  -17.5045    1.0000 </r>
       <r>  -17.5044    1.0000 </r>
       <r>  -17.4534    1.0000 </r>
       <r>  -17.3375    1.0000 </r>
       <r>  -17.2813    1.0000 </r>
       <r>  -17.2761    1.0000 </r>
       <r>  -17.2757    1.0000 </r>
       <r>  -17.2572    1.0000 </r>
       <r>   -5.5668    1.0000 </r>
       <r>    1.3035    1.0000 </r>
       <r>    3.5646    0.9939 </r>
       <r>    3.5647    0.9939 </r>
       <r>    5.2368    0.0000 </r>
       <r>    5.7273    0.0000 </r>
       <r>    7.1200    0.0000 </r>
       <r>    7.1201    0.0000 </r>
       <r>    9.8374    0.0000 </r>
       <r>   10.1186    0.0000 </r>
       <r>   12.0411    0.0000 </r>
       <r>   12.7327    0.0000 </r>
       <r>   12.7328    0.0000 </r>
       <r>   13.4986    0.0000 </r>
       <r>   16.1847    0.0000 </r>
       <r>   19.8610    0.0000 </r>
       <r>   19.8611    0.0000 </r>
       <r>   20.0003    0.0000 </r>
       <r>   20.6215    0.0000 </r>
       <r>   22.2286    0.0000 </r>
       <r>   22.2289    0.0000 </r>
       <r>   24.2526    0.0000 </r>
      </set>
      <set comment="kpoint 7">
       <r>  -17.5222    1.0000 </r>
       <r>  -17.5218    1.0000 </r>
       <r>  -17.5162    1.0000 </r>
       <r>  -17.5013    1.0000 </r>
       <r>  -17.4565    1.0000 </r>
       <r>  -17.3443    1.0000 </r>
       <r>  -17.2956    1.0000 </r>
       <r>  -17.2952    1.0000 </r>
       <r>  -17.2878    1.0000 </r>
       <r>  -17.2689    1.0000 </r>
       <r>   -5.4813    1.0000 </r>
       <r>    0.9751    1.0000 </r>
       <r>    3.3804    0.9990 </r>
       <r>    3.3805    0.9990 </r>
       <r>    5.4808    0.0000 </r>
       <r>    5.5812    0.0000 </r>
       <r>    7.4110    0.0000 </r>
       <r>    7.4111    0.0000 </r>
       <r>    9.8470    0.0000 </r>
       <r>   10.1861    0.0000 </r>
       <r>   12.1233    0.0000 </r>
       <r>   12.9151    0.0000 </r>
       <r>   12.9152    0.0000 </r>
       <r>   13.6884    0.0000 </r>
       <r>   16.8099    0.0000 </r>
       <r>   19.3102    0.0000 </r>
       <r>   19.3103    0.0000 </r>
       <r>   19.5434    0.0000 </r>
       <r>   20.0917    0.0000 </r>
       <r>   22.3042    0.0000 </r>
       <r>   22.3045    0.0000 </r>
       <r>   24.3103    0.0000 </r>
      </set>
      <set comment="kpoint 8">
       <r>  -17.5219    1.0000 </r>
       <r>  -17.5215    1.0000 </r>
       <r>  -17.5190    1.0000 </r>
       <r>  -17.4691    1.0000 </r>
       <r>  -17.4498    1.0000 </r>
       <r>  -17.3535    1.0000 </r>
       <r>  -17.2933    1.0000 </r>
       <r>  -17.2716    1.0000 </r>
       <r>  -17.2695    1.0000 </r>
       <r>  -17.2690    1.0000 </r>
       <r>   -5.3805    1.0000 </r>
       <r>    0.6426    1.0000 </r>
       <r>    3.2001    0.9998 </r>
       <r>    3.2001    0.9998 </r>
       <r>    5.4412    0.0000 </r>
       <r>    5.6838    0.0000 </r>
       <r>    7.7167    0.0000 </r>
       <r>    7.7167    0.0000 </r>
       <r>    9.6482    0.0000 </r>
       <r>   10.5615    0.0000 </r>
       <r>   12.2208    0.0000 </r>
       <r>   13.1310    0.0000 </r>
       <r>   13.1310    0.0000 </r>
       <r>   13.8910    0.0000 </r>
       <r>   17.4801    0.0000 </r>
       <r>   18.7637    0.0000 </r>
       <r>   18.7638    0.0000 </r>
       <r>   19.0905    0.0000 </r>
       <r>   19.5684    0.0000 </r>
       <r>   22.4033    0.0000 </r>
       <r>   22.4036    0.0000 </r>
       <r>   24.3739    0.0000 </r>
      </set>
      <set comment="kpoint 9">
       <r>  -17.5359    1.0000 </r>
       <r>  -17.5356    1.0000 </r>
       <r>  -17.5290    1.0000 </r>
       <r>  -17.4600    1.0000 </r>
       <r>  -17.4454    1.0000 </r>
       <r>  -17.3703    1.0000 </r>
       <r>  -17.2943    1.0000 </r>
       <r>  -17.2739    1.0000 </r>
       <r>  -17.2617    1.0000 </r>
       <r>  -17.2613    1.0000 </r>
       <r>   -5.2645    1.0000 </r>
       <r>    0.3088    1.0000 </r>
       <r>    3.0272    1.0000 </r>
       <r>    3.0272    1.0000 </r>
       <r>    5.3113    0.0000 </r>
       <r>    5.8289    0.0000 </r>
       <r>    8.0319    0.0000 </r>
       <r>    8.0320    0.0000 </r>
       <r>    9.5379    0.0000 </r>
       <r>   10.9560    0.0000 </r>
       <r>   12.3328    0.0000 </r>
       <r>   13.3775    0.0000 </r>
       <r>   13.3775    0.0000 </r>
       <r>   14.1104    0.0000 </r>
       <r>   18.1822    0.0000 </r>
       <r>   18.2316    0.0000 </r>
       <r>   18.2317    0.0000 </r>
       <r>   18.6522    0.0000 </r>
       <r>   19.0572    0.0000 </r>
       <r>   22.5269    0.0000 </r>
       <r>   22.5273    0.0000 </r>
       <r>   24.4298    0.0000 </r>
      </set>
      <set comment="kpoint 10">
       <r>  -17.5426    1.0000 </r>
       <r>  -17.5422    1.0000 </r>
       <r>  -17.5297    1.0000 </r>
       <r>  -17.4561    1.0000 </r>
       <r>  -17.4373    1.0000 </r>
       <r>  -17.3804    1.0000 </r>
       <r>  -17.3016    1.0000 </r>
       <r>  -17.2772    1.0000 </r>
       <r>  -17.2629    1.0000 </r>
       <r>  -17.2625    1.0000 </r>
       <r>   -5.1338    1.0000 </r>
       <r>   -0.0242    1.0000 </r>
       <r>    2.8644    1.0000 </r>
       <r>    2.8645    1.0000 </r>
       <r>    5.1947    0.0000 </r>
       <r>    5.9047    0.0000 </r>
       <r>    8.3546    0.0000 </r>
       <r>    8.3547    0.0000 </r>
       <r>    9.5276    0.0000 </r>
       <r>   11.3641    0.0000 </r>
       <r>   12.4605    0.0000 </r>
       <r>   13.6577    0.0000 </r>
       <r>   13.6577    0.0000 </r>
       <r>   14.3514    0.0000 </r>
       <r>   17.7062    0.0000 </r>
       <r>   17.7062    0.0000 </r>
       <r>   18.2136    0.0000 </r>
       <r>   18.5660    0.0000 </r>
       <r>   18.9108    0.0000 </r>
       <r>   22.6553    0.0000 </r>
       <r>   22.6556    0.0000 </r>
       <r>   24.4860    0.0000 </r>
      </set>
      <set comment="kpoint 11">
       <r>  -17.5484    1.0000 </r>
       <r>  -17.5481    1.0000 </r>
       <r>  -17.5290    1.0000 </r>
       <r>  -17.4513    1.0000 </r>
       <r>  -17.4282    1.0000 </r>
       <r>  -17.3906    1.0000 </r>
       <r>  -17.3090    1.0000 </r>
       <r>  -17.2805    1.0000 </r>
       <r>  -17.2634    1.0000 </r>
       <r>  -17.2630    1.0000 </r>
       <r>   -4.9884    1.0000 </r>
       <r>   -0.3549    1.0000 </r>
       <r>    2.7136    1.0000 </r>
       <r>    2.7137    1.0000 </r>
       <r>    5.0930    0.0000 </r>
       <r>    5.9107    0.0000 </r>
       <r>    8.6816    0.0000 </r>
       <r>    8.6817    0.0000 </r>
       <r>    9.6161    0.0000 </r>
       <r>   11.7766    0.0000 </r>
       <r>   12.6034    0.0000 </r>
       <r>   13.9685    0.0000 </r>
       <r>   13.9685    0.0000 </r>
       <r>   14.6170    0.0000 </r>
       <r>   17.1972    0.0000 </r>
       <r>   17.1973    0.0000 </r>
       <r>   17.7864    0.0000 </r>
       <r>   18.1029    0.0000 </r>
       <r>   19.6584    0.0000 </r>
       <r>   22.7871    0.0000 </r>
       <r>   22.7874    0.0000 </r>
       <r>   24.1441    0.0000 </r>
      </set>
      <set comment="kpoint 12">
       <r>  -17.5534    1.0000 </r>
       <r>  -17.5530    1.0000 </r>
       <r>  -17.5269    1.0000 </r>
       <r>  -17.4457    1.0000 </r>
       <r>  -17.4181    1.0000 </r>
       <r>  -17.4004    1.0000 </r>
       <r>  -17.3165    1.0000 </r>
       <r>  -17.2838    1.0000 </r>
       <r>  -17.2635    1.0000 </r>
       <r>  -17.2631    1.0000 </r>
       <r>   -4.8287    1.0000 </r>
       <r>   -0.6822    1.0000 </r>
       <r>    2.5762    1.0000 </r>
       <r>    2.5763    1.0000 </r>
       <r>    5.0077    0.0001 </r>
       <r>    5.8583    0.0000 </r>
       <r>    9.0105    0.0000 </r>
       <r>    9.0106    0.0000 </r>
       <r>    9.7909    0.0000 </r>
       <r>   12.1815    0.0000 </r>
       <r>   12.7617    0.0000 </r>
       <r>   14.3073    0.0000 </r>
       <r>   14.3073    0.0000 </r>
       <r>   14.9087    0.0000 </r>
       <r>   16.7090    0.0000 </r>
       <r>   16.7091    0.0000 </r>
       <r>   17.3719    0.0000 </r>
       <r>   17.6793    0.0000 </r>
       <r>   20.4145    0.0000 </r>
       <r>   22.8821    0.0000 </r>
       <r>   22.8824    0.0000 </r>
       <r>   23.4563    0.0000 </r>
      </set>
      <set comment="kpoint 13">
       <r>  -17.5574    1.0000 </r>
       <r>  -17.5570    1.0000 </r>
       <r>  -17.5234    1.0000 </r>
       <r>  -17.4392    1.0000 </r>
       <r>  -17.4181    1.0000 </r>
       <r>  -17.4072    1.0000 </r>
       <r>  -17.3240    1.0000 </r>
       <r>  -17.3024    1.0000 </r>
       <r>  -17.2631    1.0000 </r>
       <r>  -17.2627    1.0000 </r>
       <r>   -4.6549    1.0000 </r>
       <r>   -1.0052    1.0000 </r>
       <r>    2.4531    1.0000 </r>
       <r>    2.4532    1.0000 </r>
       <r>    4.9397    0.0002 </r>
       <r>    5.7646    0.0000 </r>
       <r>    9.3387    0.0000 </r>
       <r>    9.3388    0.0000 </r>
       <r>   10.0334    0.0000 </r>
       <r>   12.5605    0.0000 </r>
       <r>   12.9352    0.0000 </r>
       <r>   14.6669    0.0000 </r>
       <r>   14.6670    0.0000 </r>
       <r>   15.2277    0.0000 </r>
       <r>   16.2503    0.0000 </r>
       <r>   16.2504    0.0000 </r>
       <r>   16.9708    0.0000 </r>
       <r>   17.3112    0.0000 </r>
       <r>   21.1517    0.0000 </r>
       <r>   22.6679    0.0000 </r>
       <r>   22.6680    0.0000 </r>
       <r>   22.7745    0.0000 </r>
      </set>
      <set comment="kpoint 14">
       <r>  -17.5604    1.0000 </r>
       <r>  -17.5600    1.0000 </r>
       <r>  -17.5186    1.0000 </r>
       <r>  -17.4320    1.0000 </r>
       <r>  -17.4281    1.0000 </r>
       <r>  -17.3955    1.0000 </r>
       <r>  -17.3317    1.0000 </r>
       <r>  -17.3071    1.0000 </r>
       <r>  -17.2625    1.0000 </r>
       <r>  -17.2621    1.0000 </r>
       <r>   -4.4674    1.0000 </r>
       <r>   -1.3229    1.0000 </r>
       <r>    2.3452    1.0000 </r>
       <r>    2.3452    1.0000 </r>
       <r>    4.8897    0.0003 </r>
       <r>    5.6469    0.0000 </r>
       <r>    9.6629    0.0000 </r>
       <r>    9.6629    0.0000 </r>
       <r>   10.3250    0.0000 </r>
       <r>   12.8855    0.0000 </r>
       <r>   13.1241    0.0000 </r>
       <r>   15.0154    0.0000 </r>
       <r>   15.0155    0.0000 </r>
       <r>   15.5743    0.0000 </r>
       <r>   15.8553    0.0000 </r>
       <r>   15.8554    0.0000 </r>
       <r>   16.5838    0.0000 </r>
       <r>   17.0285    0.0000 </r>
       <r>   21.7385    0.0000 </r>
       <r>   22.0667    0.0000 </r>
       <r>   22.0668    0.0000 </r>
       <r>   22.1072    0.0000 </r>
      </set>
      <set comment="kpoint 15">
       <r>  -17.5622    1.0000 </r>
       <r>  -17.5618    1.0000 </r>
       <r>  -17.5125    1.0000 </r>
       <r>  -17.4375    1.0000 </r>
       <r>  -17.4241    1.0000 </r>
       <r>  -17.3830    1.0000 </r>
       <r>  -17.3393    1.0000 </r>
       <r>  -17.3120    1.0000 </r>
       <r>  -17.2617    1.0000 </r>
       <r>  -17.2613    1.0000 </r>
       <r>   -4.2666    1.0000 </r>
       <r>   -1.6347    1.0000 </r>
       <r>    2.2529    1.0000 </r>
       <r>    2.2530    1.0000 </r>
       <r>    4.8583    0.0004 </r>
       <r>    5.5191    0.0000 </r>
       <r>    9.9782    0.0000 </r>
       <r>    9.9782    0.0000 </r>
       <r>   10.6502    0.0000 </r>
       <r>   13.1174    0.0000 </r>
       <r>   13.3284    0.0000 </r>
       <r>   15.1265    0.0000 </r>
       <r>   15.1266    0.0000 </r>
       <r>   15.7536    0.0000 </r>
       <r>   15.7536    0.0000 </r>
       <r>   15.9480    0.0000 </r>
       <r>   16.2113    0.0000 </r>
       <r>   16.8669    0.0000 </r>
       <r>   21.4094    0.0000 </r>
       <r>   21.4094    0.0000 </r>
       <r>   21.4570    0.0000 </r>
       <r>   21.6733    0.0000 </r>
      </set>
      <set comment="kpoint 16">
       <r>  -17.5816    1.0000 </r>
       <r>  -17.5813    1.0000 </r>
       <r>  -17.5274    1.0000 </r>
       <r>  -17.4647    1.0000 </r>
       <r>  -17.4632    1.0000 </r>
       <r>  -17.3954    1.0000 </r>
       <r>  -17.3952    1.0000 </r>
       <r>  -17.3427    1.0000 </r>
       <r>  -17.2736    1.0000 </r>
       <r>  -17.2733    1.0000 </r>
       <r>   -4.0528    1.0000 </r>
       <r>   -1.9398    1.0000 </r>
       <r>    2.1767    1.0000 </r>
       <r>    2.1768    1.0000 </r>
       <r>    4.8456    0.0004 </r>
       <r>    5.3910    0.0000 </r>
       <r>   10.2770    0.0000 </r>
       <r>   10.2771    0.0000 </r>
       <r>   10.9962    0.0000 </r>
       <r>   13.2161    0.0000 </r>
       <r>   13.5435    0.0000 </r>
       <r>   14.8523    0.0000 </r>
       <r>   14.8524    0.0000 </r>
       <r>   15.8531    0.0000 </r>
       <r>   16.0960    0.0000 </r>
       <r>   16.0961    0.0000 </r>
       <r>   16.3445    0.0000 </r>
       <r>   16.8610    0.0000 </r>
       <r>   20.7514    0.0000 </r>
       <r>   20.7515    0.0000 </r>
       <r>   20.8281    0.0000 </r>
       <r>   21.1129    0.0000 </r>
      </set>
      <set comment="kpoint 17">
       <r>  -17.5632    1.0000 </r>
       <r>  -17.5629    1.0000 </r>
       <r>  -17.5069    1.0000 </r>
       <r>  -17.4730    1.0000 </r>
       <r>  -17.4558    1.0000 </r>
       <r>  -17.4046    1.0000 </r>
       <r>  -17.3783    1.0000 </r>
       <r>  -17.3485    1.0000 </r>
       <r>  -17.2626    1.0000 </r>
       <r>  -17.2622    1.0000 </r>
       <r>   -3.8265    1.0000 </r>
       <r>   -2.2373    1.0000 </r>
       <r>    2.1173    1.0000 </r>
       <r>    2.1174    1.0000 </r>
       <r>    4.8520    0.0004 </r>
       <r>    5.2698    0.0000 </r>
       <r>   10.5484    0.0000 </r>
       <r>   10.5485    0.0000 </r>
       <r>   11.3556    0.0000 </r>
       <r>   13.1683    0.0000 </r>
       <r>   13.7782    0.0000 </r>
       <r>   14.5378    0.0000 </r>
       <r>   14.5379    0.0000 </r>
       <r>   15.5107    0.0000 </r>
       <r>   16.5507    0.0000 </r>
       <r>   16.5508    0.0000 </r>
       <r>   16.7656    0.0000 </r>
       <r>   17.0231    0.0000 </r>
       <r>   20.1202    0.0000 </r>
       <r>   20.1202    0.0000 </r>
       <r>   20.2307    0.0000 </r>
       <r>   20.4810    0.0000 </r>
      </set>
      <set comment="kpoint 18">
       <r>  -17.5603    1.0000 </r>
       <r>  -17.5599    1.0000 </r>
       <r>  -17.5053    1.0000 </r>
       <r>  -17.4802    1.0000 </r>
       <r>  -17.4483    1.0000 </r>
       <r>  -17.4138    1.0000 </r>
       <r>  -17.3808    1.0000 </r>
       <r>  -17.3547    1.0000 </r>
       <r>  -17.2584    1.0000 </r>
       <r>  -17.2580    1.0000 </r>
       <r>   -3.5883    1.0000 </r>
       <r>   -2.5268    1.0000 </r>
       <r>    2.0746    1.0000 </r>
       <r>    2.0747    1.0000 </r>
       <r>    4.8773    0.0003 </r>
       <r>    5.1597    0.0000 </r>
       <r>   10.7730    0.0000 </r>
       <r>   10.7731    0.0000 </r>
       <r>   11.7186    0.0000 </r>
       <r>   12.9949    0.0000 </r>
       <r>   14.0282    0.0000 </r>
       <r>   14.2726    0.0000 </r>
       <r>   14.2726    0.0000 </r>
       <r>   15.1834    0.0000 </r>
       <r>   17.0355    0.0000 </r>
       <r>   17.0355    0.0000 </r>
       <r>   17.1851    0.0000 </r>
       <r>   17.3149    0.0000 </r>
       <r>   19.5189    0.0000 </r>
       <r>   19.5190    0.0000 </r>
       <r>   19.6798    0.0000 </r>
       <r>   19.8717    0.0000 </r>
      </set>
      <set comment="kpoint 19">
       <r>  -17.5892    1.0000 </r>
       <r>  -17.5888    1.0000 </r>
       <r>  -17.5116    1.0000 </r>
       <r>  -17.4984    1.0000 </r>
       <r>  -17.4401    1.0000 </r>
       <r>  -17.4228    1.0000 </r>
       <r>  -17.3768    1.0000 </r>
       <r>  -17.3634    1.0000 </r>
       <r>  -17.2586    1.0000 </r>
       <r>  -17.2582    1.0000 </r>
       <r>   -3.3386    1.0000 </r>
       <r>   -2.8073    1.0000 </r>
       <r>    2.0489    1.0000 </r>
       <r>    2.0490    1.0000 </r>
       <r>    4.9213    0.0002 </r>
       <r>    5.0635    0.0001 </r>
       <r>   10.9255    0.0000 </r>
       <r>   10.9256    0.0000 </r>
       <r>   12.0767    0.0000 </r>
       <r>   12.7340    0.0000 </r>
       <r>   14.0928    0.0000 </r>
       <r>   14.0929    0.0000 </r>
       <r>   14.2938    0.0000 </r>
       <r>   14.8715    0.0000 </r>
       <r>   17.4987    0.0000 </r>
       <r>   17.4988    0.0000 </r>
       <r>   17.5795    0.0000 </r>
       <r>   17.6455    0.0000 </r>
       <r>   18.9784    0.0000 </r>
       <r>   18.9784    0.0000 </r>
       <r>   19.2263    0.0000 </r>
       <r>   19.3422    0.0000 </r>
      </set>
      <set comment="kpoint 20">
       <r>  -17.5898    1.0000 </r>
       <r>  -17.5894    1.0000 </r>
       <r>  -17.5060    1.0000 </r>
       <r>  -17.5050    1.0000 </r>
       <r>  -17.4316    1.0000 </r>
       <r>  -17.4316    1.0000 </r>
       <r>  -17.3707    1.0000 </r>
       <r>  -17.3697    1.0000 </r>
       <r>  -17.2586    1.0000 </r>
       <r>  -17.2582    1.0000 </r>
       <r>   -3.0781    1.0000 </r>
       <r>   -3.0780    1.0000 </r>
       <r>    2.0403    1.0000 </r>
       <r>    2.0404    1.0000 </r>
       <r>    4.9836    0.0001 </r>
       <r>    4.9837    0.0001 </r>
       <r>   10.9806    0.0000 </r>
       <r>   10.9807    0.0000 </r>
       <r>   12.4203    0.0000 </r>
       <r>   12.4204    0.0000 </r>
       <r>   14.0287    0.0000 </r>
       <r>   14.0288    0.0000 </r>
       <r>   14.5749    0.0000 </r>
       <r>   14.5749    0.0000 </r>
       <r>   17.7657    0.0000 </r>
       <r>   17.7658    0.0000 </r>
       <r>   17.8014    0.0000 </r>
       <r>   17.8016    0.0000 </r>
       <r>   18.6881    0.0000 </r>
       <r>   18.6881    0.0000 </r>
       <r>   19.0540    0.0000 </r>
       <r>   19.0541    0.0000 </r>
      </set>
      <set comment="kpoint 21">
       <r>  -17.5898    1.0000 </r>
       <r>  -17.5894    1.0000 </r>
       <r>  -17.5060    1.0000 </r>
       <r>  -17.5050    1.0000 </r>
       <r>  -17.4316    1.0000 </r>
       <r>  -17.4316    1.0000 </r>
       <r>  -17.3707    1.0000 </r>
       <r>  -17.3697    1.0000 </r>
       <r>  -17.2586    1.0000 </r>
       <r>  -17.2582    1.0000 </r>
       <r>   -3.0781    1.0000 </r>
       <r>   -3.0780    1.0000 </r>
       <r>    2.0403    1.0000 </r>
       <r>    2.0404    1.0000 </r>
       <r>    4.9836    0.0001 </r>
       <r>    4.9837    0.0001 </r>
       <r>   10.9806    0.0000 </r>
       <r>   10.9807    0.0000 </r>
       <r>   12.4203    0.0000 </r>
       <r>   12.4204    0.0000 </r>
       <r>   14.0287    0.0000 </r>
       <r>   14.0288    0.0000 </r>
       <r>   14.5749    0.0000 </r>
       <r>   14.5749    0.0000 </r>
       <r>   17.7657    0.0000 </r>
       <r>   17.7658    0.0000 </r>
       <r>   17.8014    0.0000 </r>
       <r>   17.8016    0.0000 </r>
       <r>   18.6881    0.0000 </r>
       <r>   18.6881    0.0000 </r>
       <r>   19.0540    0.0000 </r>
       <r>   19.0541    0.0000 </r>
      </set>
      <set comment="kpoint 22">
       <r>  -17.5897    1.0000 </r>
       <r>  -17.5894    1.0000 </r>
       <r>  -17.5058    1.0000 </r>
       <r>  -17.5047    1.0000 </r>
       <r>  -17.4315    1.0000 </r>
       <r>  -17.4315    1.0000 </r>
       <r>  -17.3708    1.0000 </r>
       <r>  -17.3697    1.0000 </r>
       <r>  -17.2585    1.0000 </r>
       <r>  -17.2581    1.0000 </r>
       <r>   -3.0778    1.0000 </r>
       <r>   -3.0778    1.0000 </r>
       <r>    2.0362    1.0000 </r>
       <r>    2.0362    1.0000 </r>
       <r>    4.9934    0.0001 </r>
       <r>    4.9935    0.0001 </r>
       <r>   10.9626    0.0000 </r>
       <r>   10.9627    0.0000 </r>
       <r>   12.4171    0.0000 </r>
       <r>   12.4172    0.0000 </r>
       <r>   14.0107    0.0000 </r>
       <r>   14.0107    0.0000 </r>
       <r>   14.6157    0.0000 </r>
       <r>   14.6158    0.0000 </r>
       <r>   17.7360    0.0000 </r>
       <r>   17.7361    0.0000 </r>
       <r>   17.7946    0.0000 </r>
       <r>   17.7948    0.0000 </r>
       <r>   18.7191    0.0000 </r>
       <r>   18.7191    0.0000 </r>
       <r>   19.0738    0.0000 </r>
       <r>   19.0739    0.0000 </r>
      </set>
      <set comment="kpoint 23">
       <r>  -17.5897    1.0000 </r>
       <r>  -17.5893    1.0000 </r>
       <r>  -17.5050    1.0000 </r>
       <r>  -17.5040    1.0000 </r>
       <r>  -17.4313    1.0000 </r>
       <r>  -17.4313    1.0000 </r>
       <r>  -17.3711    1.0000 </r>
       <r>  -17.3700    1.0000 </r>
       <r>  -17.2584    1.0000 </r>
       <r>  -17.2580    1.0000 </r>
       <r>   -3.0771    1.0000 </r>
       <r>   -3.0770    1.0000 </r>
       <r>    2.0238    1.0000 </r>
       <r>    2.0239    1.0000 </r>
       <r>    5.0226    0.0001 </r>
       <r>    5.0228    0.0001 </r>
       <r>   10.9095    0.0000 </r>
       <r>   10.9095    0.0000 </r>
       <r>   12.4086    0.0000 </r>
       <r>   12.4087    0.0000 </r>
       <r>   13.9696    0.0000 </r>
       <r>   13.9697    0.0000 </r>
       <r>   14.7237    0.0000 </r>
       <r>   14.7238    0.0000 </r>
       <r>   17.6645    0.0000 </r>
       <r>   17.6646    0.0000 </r>
       <r>   17.7675    0.0000 </r>
       <r>   17.7677    0.0000 </r>
       <r>   18.8034    0.0000 </r>
       <r>   18.8035    0.0000 </r>
       <r>   19.1313    0.0000 </r>
       <r>   19.1315    0.0000 </r>
      </set>
      <set comment="kpoint 24">
       <r>  -17.5866    1.0000 </r>
       <r>  -17.5862    1.0000 </r>
       <r>  -17.4983    1.0000 </r>
       <r>  -17.4973    1.0000 </r>
       <r>  -17.4070    1.0000 </r>
       <r>  -17.4070    1.0000 </r>
       <r>  -17.3691    1.0000 </r>
       <r>  -17.3681    1.0000 </r>
       <r>  -17.2528    1.0000 </r>
       <r>  -17.2523    1.0000 </r>
       <r>   -3.0759    1.0000 </r>
       <r>   -3.0758    1.0000 </r>
       <r>    2.0041    1.0000 </r>
       <r>    2.0042    1.0000 </r>
       <r>    5.0706    0.0000 </r>
       <r>    5.0707    0.0000 </r>
       <r>   10.8232    0.0000 </r>
       <r>   10.8233    0.0000 </r>
       <r>   12.3967    0.0000 </r>
       <r>   12.3968    0.0000 </r>
       <r>   13.9254    0.0000 </r>
       <r>   13.9255    0.0000 </r>
       <r>   14.8759    0.0000 </r>
       <r>   14.8760    0.0000 </r>
       <r>   17.5712    0.0000 </r>
       <r>   17.5713    0.0000 </r>
       <r>   17.7248    0.0000 </r>
       <r>   17.7249    0.0000 </r>
       <r>   18.9247    0.0000 </r>
       <r>   18.9248    0.0000 </r>
       <r>   19.2224    0.0000 </r>
       <r>   19.2226    0.0000 </r>
      </set>
      <set comment="kpoint 25">
       <r>  -17.5778    1.0000 </r>
       <r>  -17.5774    1.0000 </r>
       <r>  -17.4917    1.0000 </r>
       <r>  -17.4906    1.0000 </r>
       <r>  -17.4072    1.0000 </r>
       <r>  -17.4071    1.0000 </r>
       <r>  -17.3442    1.0000 </r>
       <r>  -17.3432    1.0000 </r>
       <r>  -17.2524    1.0000 </r>
       <r>  -17.2519    1.0000 </r>
       <r>   -3.0742    1.0000 </r>
       <r>   -3.0741    1.0000 </r>
       <r>    1.9778    1.0000 </r>
       <r>    1.9778    1.0000 </r>
       <r>    5.1363    0.0000 </r>
       <r>    5.1365    0.0000 </r>
       <r>   10.7071    0.0000 </r>
       <r>   10.7071    0.0000 </r>
       <r>   12.3843    0.0000 </r>
       <r>   12.3844    0.0000 </r>
       <r>   13.8857    0.0000 </r>
       <r>   13.8858    0.0000 </r>
       <r>   15.0552    0.0000 </r>
       <r>   15.0553    0.0000 </r>
       <r>   17.4658    0.0000 </r>
       <r>   17.4658    0.0000 </r>
       <r>   17.6707    0.0000 </r>
       <r>   17.6709    0.0000 </r>
       <r>   19.0667    0.0000 </r>
       <r>   19.0668    0.0000 </r>
       <r>   19.3423    0.0000 </r>
       <r>   19.3424    0.0000 </r>
      </set>
      <set comment="kpoint 26">
       <r>  -17.5781    1.0000 </r>
       <r>  -17.5776    1.0000 </r>
       <r>  -17.4897    1.0000 </r>
       <r>  -17.4887    1.0000 </r>
       <r>  -17.4080    1.0000 </r>
       <r>  -17.4079    1.0000 </r>
       <r>  -17.3458    1.0000 </r>
       <r>  -17.3448    1.0000 </r>
       <r>  -17.2520    1.0000 </r>
       <r>  -17.2516    1.0000 </r>
       <r>   -3.0721    1.0000 </r>
       <r>   -3.0721    1.0000 </r>
       <r>    1.9461    1.0000 </r>
       <r>    1.9462    1.0000 </r>
       <r>    5.2185    0.0000 </r>
       <r>    5.2187    0.0000 </r>
       <r>   10.5650    0.0000 </r>
       <r>   10.5650    0.0000 </r>
       <r>   12.3722    0.0000 </r>
       <r>   12.3723    0.0000 </r>
       <r>   13.8540    0.0000 </r>
       <r>   13.8541    0.0000 </r>
       <r>   15.2524    0.0000 </r>
       <r>   15.2525    0.0000 </r>
       <r>   17.3569    0.0000 </r>
       <r>   17.3570    0.0000 </r>
       <r>   17.6134    0.0000 </r>
       <r>   17.6135    0.0000 </r>
       <r>   19.2204    0.0000 </r>
       <r>   19.2205    0.0000 </r>
       <r>   19.4873    0.0000 </r>
       <r>   19.4875    0.0000 </r>
      </set>
      <set comment="kpoint 27">
       <r>  -17.5782    1.0000 </r>
       <r>  -17.5776    1.0000 </r>
       <r>  -17.4873    1.0000 </r>
       <r>  -17.4862    1.0000 </r>
       <r>  -17.4087    1.0000 </r>
       <r>  -17.4086    1.0000 </r>
       <r>  -17.3475    1.0000 </r>
       <r>  -17.3465    1.0000 </r>
       <r>  -17.2516    1.0000 </r>
       <r>  -17.2511    1.0000 </r>
       <r>   -3.0697    1.0000 </r>
       <r>   -3.0697    1.0000 </r>
       <r>    1.9105    1.0000 </r>
       <r>    1.9106    1.0000 </r>
       <r>    5.3158    0.0000 </r>
       <r>    5.3160    0.0000 </r>
       <r>   10.4016    0.0000 </r>
       <r>   10.4017    0.0000 </r>
       <r>   12.3621    0.0000 </r>
       <r>   12.3622    0.0000 </r>
       <r>   13.8300    0.0000 </r>
       <r>   13.8300    0.0000 </r>
       <r>   15.4604    0.0000 </r>
       <r>   15.4606    0.0000 </r>
       <r>   17.2491    0.0000 </r>
       <r>   17.2492    0.0000 </r>
       <r>   17.5586    0.0000 </r>
       <r>   17.5588    0.0000 </r>
       <r>   19.3805    0.0000 </r>
       <r>   19.3806    0.0000 </r>
       <r>   19.6544    0.0000 </r>
       <r>   19.6546    0.0000 </r>
      </set>
      <set comment="kpoint 28">
       <r>  -17.5456    1.0000 </r>
       <r>  -17.5451    1.0000 </r>
       <r>  -17.4590    1.0000 </r>
       <r>  -17.4579    1.0000 </r>
       <r>  -17.4032    1.0000 </r>
       <r>  -17.4030    1.0000 </r>
       <r>  -17.3304    1.0000 </r>
       <r>  -17.3294    1.0000 </r>
       <r>  -17.2503    1.0000 </r>
       <r>  -17.2498    1.0000 </r>
       <r>   -3.0670    1.0000 </r>
       <r>   -3.0670    1.0000 </r>
       <r>    1.8724    1.0000 </r>
       <r>    1.8724    1.0000 </r>
       <r>    5.4269    0.0000 </r>
       <r>    5.4270    0.0000 </r>
       <r>   10.2219    0.0000 </r>
       <r>   10.2220    0.0000 </r>
       <r>   12.3556    0.0000 </r>
       <r>   12.3557    0.0000 </r>
       <r>   13.8128    0.0000 </r>
       <r>   13.8129    0.0000 </r>
       <r>   15.6734    0.0000 </r>
       <r>   15.6735    0.0000 </r>
       <r>   17.1485    0.0000 </r>
       <r>   17.1485    0.0000 </r>
       <r>   17.5160    0.0000 </r>
       <r>   17.5162    0.0000 </r>
       <r>   19.5446    0.0000 </r>
       <r>   19.5447    0.0000 </r>
       <r>   19.8426    0.0000 </r>
       <r>   19.8428    0.0000 </r>
      </set>
      <set comment="kpoint 29">
       <r>  -17.5458    1.0000 </r>
       <r>  -17.5453    1.0000 </r>
       <r>  -17.4566    1.0000 </r>
       <r>  -17.4555    1.0000 </r>
       <r>  -17.4042    1.0000 </r>
       <r>  -17.4040    1.0000 </r>
       <r>  -17.3327    1.0000 </r>
       <r>  -17.3317    1.0000 </r>
       <r>  -17.2497    1.0000 </r>
       <r>  -17.2491    1.0000 </r>
       <r>   -3.0641    1.0000 </r>
       <r>   -3.0641    1.0000 </r>
       <r>    1.8327    1.0000 </r>
       <r>    1.8328    1.0000 </r>
       <r>    5.5502    0.0000 </r>
       <r>    5.5503    0.0000 </r>
       <r>   10.0289    0.0000 </r>
       <r>   10.0289    0.0000 </r>
       <r>   12.3504    0.0000 </r>
       <r>   12.3504    0.0000 </r>
       <r>   13.8006    0.0000 </r>
       <r>   13.8007    0.0000 </r>
       <r>   15.8827    0.0000 </r>
       <r>   15.8828    0.0000 </r>
       <r>   17.0495    0.0000 </r>
       <r>   17.0496    0.0000 </r>
       <r>   17.4830    0.0000 </r>
       <r>   17.4831    0.0000 </r>
       <r>   19.7106    0.0000 </r>
       <r>   19.7107    0.0000 </r>
       <r>   20.0450    0.0000 </r>
       <r>   20.0451    0.0000 </r>
      </set>
      <set comment="kpoint 30">
       <r>  -17.5467    1.0000 </r>
       <r>  -17.5461    1.0000 </r>
       <r>  -17.4661    1.0000 </r>
       <r>  -17.4650    1.0000 </r>
       <r>  -17.4145    1.0000 </r>
       <r>  -17.4144    1.0000 </r>
       <r>  -17.3351    1.0000 </r>
       <r>  -17.3342    1.0000 </r>
       <r>  -17.2494    1.0000 </r>
       <r>  -17.2488    1.0000 </r>
       <r>   -3.0611    1.0000 </r>
       <r>   -3.0611    1.0000 </r>
       <r>    1.7929    1.0000 </r>
       <r>    1.7929    1.0000 </r>
       <r>    5.6843    0.0000 </r>
       <r>    5.6844    0.0000 </r>
       <r>    9.8265    0.0000 </r>
       <r>    9.8265    0.0000 </r>
       <r>   12.3472    0.0000 </r>
       <r>   12.3473    0.0000 </r>
       <r>   13.7920    0.0000 </r>
       <r>   13.7920    0.0000 </r>
       <r>   16.0800    0.0000 </r>
       <r>   16.0801    0.0000 </r>
       <r>   16.9570    0.0000 </r>
       <r>   16.9571    0.0000 </r>
       <r>   17.4720    0.0000 </r>
       <r>   17.4721    0.0000 </r>
       <r>   19.8771    0.0000 </r>
       <r>   19.8772    0.0000 </r>
       <r>   20.2587    0.0000 </r>
       <r>   20.2589    0.0000 </r>
      </set>
      <set comment="kpoint 31">
       <r>  -17.5599    1.0000 </r>
       <r>  -17.5594    1.0000 </r>
       <r>  -17.4567    1.0000 </r>
       <r>  -17.4557    1.0000 </r>
       <r>  -17.4100    1.0000 </r>
       <r>  -17.4099    1.0000 </r>
       <r>  -17.3294    1.0000 </r>
       <r>  -17.3285    1.0000 </r>
       <r>  -17.2567    1.0000 </r>
       <r>  -17.2561    1.0000 </r>
       <r>   -3.0581    1.0000 </r>
       <r>   -3.0580    1.0000 </r>
       <r>    1.7540    1.0000 </r>
       <r>    1.7541    1.0000 </r>
       <r>    5.8280    0.0000 </r>
       <r>    5.8281    0.0000 </r>
       <r>    9.6178    0.0000 </r>
       <r>    9.6178    0.0000 </r>
       <r>   12.3459    0.0000 </r>
       <r>   12.3460    0.0000 </r>
       <r>   13.7863    0.0000 </r>
       <r>   13.7863    0.0000 </r>
       <r>   16.2543    0.0000 </r>
       <r>   16.2544    0.0000 </r>
       <r>   16.8709    0.0000 </r>
       <r>   16.8710    0.0000 </r>
       <r>   17.4932    0.0000 </r>
       <r>   17.4933    0.0000 </r>
       <r>   20.0431    0.0000 </r>
       <r>   20.0432    0.0000 </r>
       <r>   20.4837    0.0000 </r>
       <r>   20.4838    0.0000 </r>
      </set>
      <set comment="kpoint 32">
       <r>  -17.5600    1.0000 </r>
       <r>  -17.5595    1.0000 </r>
       <r>  -17.4557    1.0000 </r>
       <r>  -17.4548    1.0000 </r>
       <r>  -17.4101    1.0000 </r>
       <r>  -17.4100    1.0000 </r>
       <r>  -17.3324    1.0000 </r>
       <r>  -17.3316    1.0000 </r>
       <r>  -17.2556    1.0000 </r>
       <r>  -17.2549    1.0000 </r>
       <r>   -3.0550    1.0000 </r>
       <r>   -3.0550    1.0000 </r>
       <r>    1.7169    1.0000 </r>
       <r>    1.7169    1.0000 </r>
       <r>    5.9801    0.0000 </r>
       <r>    5.9802    0.0000 </r>
       <r>    9.4055    0.0000 </r>
       <r>    9.4055    0.0000 </r>
       <r>   12.3459    0.0000 </r>
       <r>   12.3459    0.0000 </r>
       <r>   13.7835    0.0000 </r>
       <r>   13.7835    0.0000 </r>
       <r>   16.3926    0.0000 </r>
       <r>   16.3927    0.0000 </r>
       <r>   16.7939    0.0000 </r>
       <r>   16.7940    0.0000 </r>
       <r>   17.5579    0.0000 </r>
       <r>   17.5580    0.0000 </r>
       <r>   20.2077    0.0000 </r>
       <r>   20.2078    0.0000 </r>
       <r>   20.7142    0.0000 </r>
       <r>   20.7143    0.0000 </r>
      </set>
      <set comment="kpoint 33">
       <r>  -17.5600    1.0000 </r>
       <r>  -17.5594    1.0000 </r>
       <r>  -17.4546    1.0000 </r>
       <r>  -17.4537    1.0000 </r>
       <r>  -17.4099    1.0000 </r>
       <r>  -17.4099    1.0000 </r>
       <r>  -17.3352    1.0000 </r>
       <r>  -17.3344    1.0000 </r>
       <r>  -17.2545    1.0000 </r>
       <r>  -17.2538    1.0000 </r>
       <r>   -3.0521    1.0000 </r>
       <r>   -3.0521    1.0000 </r>
       <r>    1.6824    1.0000 </r>
       <r>    1.6825    1.0000 </r>
       <r>    6.1390    0.0000 </r>
       <r>    6.1391    0.0000 </r>
       <r>    9.1919    0.0000 </r>
       <r>    9.1919    0.0000 </r>
       <r>   12.3468    0.0000 </r>
       <r>   12.3468    0.0000 </r>
       <r>   13.7823    0.0000 </r>
       <r>   13.7824    0.0000 </r>
       <r>   16.4877    0.0000 </r>
       <r>   16.4879    0.0000 </r>
       <r>   16.7258    0.0000 </r>
       <r>   16.7258    0.0000 </r>
       <r>   17.6718    0.0000 </r>
       <r>   17.6719    0.0000 </r>
       <r>   20.3626    0.0000 </r>
       <r>   20.3627    0.0000 </r>
       <r>   20.9411    0.0000 </r>
       <r>   20.9412    0.0000 </r>
      </set>
      <set comment="kpoint 34">
       <r>  -17.5598    1.0000 </r>
       <r>  -17.5592    1.0000 </r>
       <r>  -17.4533    1.0000 </r>
       <r>  -17.4525    1.0000 </r>
       <r>  -17.4096    1.0000 </r>
       <r>  -17.4096    1.0000 </r>
       <r>  -17.3377    1.0000 </r>
       <r>  -17.3369    1.0000 </r>
       <r>  -17.2534    1.0000 </r>
       <r>  -17.2528    1.0000 </r>
       <r>   -3.0494    1.0000 </r>
       <r>   -3.0493    1.0000 </r>
       <r>    1.6512    1.0000 </r>
       <r>    1.6513    1.0000 </r>
       <r>    6.3033    0.0000 </r>
       <r>    6.3033    0.0000 </r>
       <r>    8.9793    0.0000 </r>
       <r>    8.9793    0.0000 </r>
       <r>   12.3483    0.0000 </r>
       <r>   12.3484    0.0000 </r>
       <r>   13.7823    0.0000 </r>
       <r>   13.7824    0.0000 </r>
       <r>   16.5422    0.0000 </r>
       <r>   16.5424    0.0000 </r>
       <r>   16.6677    0.0000 </r>
       <r>   16.6678    0.0000 </r>
       <r>   17.8298    0.0000 </r>
       <r>   17.8298    0.0000 </r>
       <r>   20.4909    0.0000 </r>
       <r>   20.4910    0.0000 </r>
       <r>   21.1325    0.0000 </r>
       <r>   21.1326    0.0000 </r>
      </set>
      <set comment="kpoint 35">
       <r>  -17.5593    1.0000 </r>
       <r>  -17.5587    1.0000 </r>
       <r>  -17.4490    1.0000 </r>
       <r>  -17.4482    1.0000 </r>
       <r>  -17.4042    1.0000 </r>
       <r>  -17.4040    1.0000 </r>
       <r>  -17.3277    1.0000 </r>
       <r>  -17.3271    1.0000 </r>
       <r>  -17.2518    1.0000 </r>
       <r>  -17.2511    1.0000 </r>
       <r>   -3.0469    1.0000 </r>
       <r>   -3.0469    1.0000 </r>
       <r>    1.6240    1.0000 </r>
       <r>    1.6240    1.0000 </r>
       <r>    6.4707    0.0000 </r>
       <r>    6.4708    0.0000 </r>
[...]
        <r>  0.2939  0.0059  0.0117  0.0175  0.0009  0.0005  0.0015  0.0015  0.0003 </r>
       </set>
       <set comment="band 12">
        <r>  0.2937  0.0060  0.0117  0.0176  0.0022  0.0001  0.0015  0.0003  0.0007 </r>
        <r>  0.2937  0.0060  0.0117  0.0176  0.0022  0.0001  0.0015  0.0003  0.0007 </r>
       </set>
       <set comment="band 13">
        <r>  0.0001  0.1844  0.0005  0.0621  0.0005  0.0006  0.0000  0.0003  0.0013 </r>
        <r>  0.0001  0.1844  0.0005  0.0621  0.0005  0.0006  0.0000  0.0003  0.0013 </r>
       </set>
       <set comment="band 14">
        <r>  0.0000  0.0207  0.1657  0.0622  0.0004  0.0001  0.0017  0.0002  0.0001 </r>
        <r>  0.0000  0.0207  0.1657  0.0622  0.0004  0.0001  0.0017  0.0002  0.0001 </r>
       </set>
       <set comment="band 15">
        <r>  0.0527  0.0154  0.0308  0.0462  0.0000  0.0063  0.0048  0.0189  0.0000 </r>
        <r>  0.0527  0.0154  0.0308  0.0462  0.0000  0.0063  0.0048  0.0189  0.0000 </r>
       </set>
       <set comment="band 16">
        <r>  0.0523  0.0173  0.0304  0.0463  0.0174  0.0005  0.0048  0.0016  0.0058 </r>
        <r>  0.0523  0.0173  0.0304  0.0463  0.0174  0.0005  0.0048  0.0016  0.0058 </r>
       </set>
       <set comment="band 17">
        <r>  0.0021  0.2158  0.0014  0.0738  0.0038  0.0058  0.0001  0.0023  0.0114 </r>
        <r>  0.0021  0.2158  0.0014  0.0738  0.0038  0.0058  0.0001  0.0023  0.0114 </r>
       </set>
       <set comment="band 18">
        <r>  0.0000  0.0245  0.1963  0.0736  0.0040  0.0009  0.0158  0.0021  0.0015 </r>
        <r>  0.0000  0.0245  0.1963  0.0736  0.0040  0.0009  0.0158  0.0021  0.0015 </r>
       </set>
       <set comment="band 19">
        <r>  0.0371  0.0310  0.0608  0.0914  0.0109  0.0012  0.0048  0.0004  0.0057 </r>
        <r>  0.0371  0.0310  0.0608  0.0914  0.0109  0.0012  0.0048  0.0004  0.0057 </r>
       </set>
       <set comment="band 20">
        <r>  0.0361  0.0380  0.0617  0.0949  0.0016  0.0030  0.0048  0.0086  0.0009 </r>
        <r>  0.0361  0.0380  0.0617  0.0949  0.0016  0.0030  0.0048  0.0086  0.0009 </r>
       </set>
       <set comment="band 21">
        <r>  0.0000  0.0028  0.0222  0.0083  0.0192  0.0126  0.0703  0.0120  0.0107 </r>
        <r>  0.0000  0.0028  0.0222  0.0083  0.0192  0.0126  0.0703  0.0120  0.0107 </r>
       </set>
       <set comment="band 22">
        <r>  0.0010  0.0298  0.0023  0.0130  0.0206  0.0303  0.0001  0.0101  0.0607 </r>
        <r>  0.0010  0.0298  0.0023  0.0130  0.0206  0.0303  0.0001  0.0101  0.0607 </r>
       </set>
       <set comment="band 23">
        <r>  0.0000  0.0002  0.0014  0.0005  0.0103  0.0619  0.0000  0.0206  0.0310 </r>
        <r>  0.0000  0.0002  0.0014  0.0005  0.0103  0.0619  0.0000  0.0206  0.0310 </r>
       </set>
       <set comment="band 24">
        <r>  0.0000  0.0004  0.0035  0.0013  0.0124  0.0531  0.0147  0.0194  0.0275 </r>
        <r>  0.0000  0.0004  0.0035  0.0013  0.0124  0.0531  0.0147  0.0194  0.0275 </r>
       </set>
       <set comment="band 25">
        <r>  0.0003  0.0059  0.0013  0.0037  0.0048  0.0078  0.0003  0.0079  0.0119 </r>
        <r>  0.0003  0.0059  0.0013  0.0037  0.0048  0.0078  0.0003  0.0079  0.0119 </r>
       </set>
       <set comment="band 26">
        <r>  0.0203  0.0049  0.0081  0.0125  0.0029  0.0042  0.0001  0.0040  0.0067 </r>
        <r>  0.0203  0.0049  0.0081  0.0125  0.0029  0.0042  0.0001  0.0040  0.0067 </r>
       </set>
       <set comment="band 27">
        <r>  0.0000  0.0006  0.0050  0.0019  0.0046  0.0008  0.0185  0.0023  0.0016 </r>
        <r>  0.0000  0.0006  0.0050  0.0019  0.0046  0.0008  0.0185  0.0023  0.0016 </r>
       </set>
       <set comment="band 28">
        <r>  0.0237  0.0041  0.0080  0.0120  0.0017  0.0009  0.0002  0.0005  0.0021 </r>
        <r>  0.0237  0.0041  0.0080  0.0120  0.0017  0.0009  0.0002  0.0005  0.0021 </r>
       </set>
       <set comment="band 29">
        <r>  0.0000  0.0016  0.0127  0.0048  0.0202  0.0034  0.0807  0.0101  0.0068 </r>
        <r>  0.0000  0.0016  0.0127  0.0048  0.0202  0.0034  0.0807  0.0101  0.0068 </r>
       </set>
       <set comment="band 30">
        <r>  0.0030  0.0138  0.0012  0.0062  0.0183  0.0273  0.0001  0.0091  0.0545 </r>
        <r>  0.0030  0.0138  0.0012  0.0062  0.0183  0.0273  0.0001  0.0091  0.0545 </r>
       </set>
       <set comment="band 31">
        <r>  0.0314  0.0002  0.0002  0.0004  0.0645  0.0087  0.0088  0.0257  0.0218 </r>
        <r>  0.0314  0.0002  0.0002  0.0004  0.0645  0.0087  0.0088  0.0257  0.0218 </r>
       </set>
       <set comment="band 32">
        <r>  0.0306  0.0008  0.0003  0.0007  0.0044  0.0275  0.0084  0.0817  0.0020 </r>
        <r>  0.0306  0.0008  0.0003  0.0007  0.0044  0.0275  0.0084  0.0817  0.0020 </r>
       </set>
      </set>
      <set comment="kpoint 199">
       <set comment="band 1">
        <r>  0.0000  0.0000  0.0001  0.0000  0.0833  0.0143  0.3313  0.0409  0.0271 </r>
        <r>  0.0000  0.0000  0.0001  0.0000  0.0833  0.0143  0.3313  0.0409  0.0271 </r>
       </set>
       <set comment="band 2">
        <r>  0.0000  0.0001  0.0000  0.0000  0.0830  0.1252  0.0002  0.0401  0.2484 </r>
        <r>  0.0000  0.0001  0.0000  0.0000  0.0830  0.1252  0.0002  0.0401  0.2484 </r>
       </set>
       <set comment="band 3">
        <r>  0.0003  0.0000  0.0000  0.0000  0.0101  0.0945  0.1011  0.2875  0.0030 </r>
        <r>  0.0003  0.0000  0.0000  0.0000  0.0101  0.0945  0.1011  0.2875  0.0030 </r>
       </set>
       <set comment="band 4">
        <r>  0.0003  0.0000  0.0000  0.0000  0.2885  0.0025  0.1013  0.0074  0.0965 </r>
        <r>  0.0003  0.0000  0.0000  0.0000  0.2885  0.0025  0.1013  0.0074  0.0965 </r>
       </set>
       <set comment="band 5">
        <r>  0.0000  0.0000  0.0000  0.0000  0.0419  0.2495  0.0000  0.0826  0.1241 </r>
        <r>  0.0000  0.0000  0.0000  0.0000  0.0419  0.2495  0.0000  0.0826  0.1241 </r>
       </set>
       <set comment="band 6">
        <r>  0.0000  0.0000  0.0000  0.0000  0.0410  0.2486  0.0000  0.0835  0.1250 </r>
        <r>  0.0000  0.0000  0.0000  0.0000  0.0410  0.2486  0.0000  0.0835  0.1250 </r>
       </set>
       <set comment="band 7">
        <r>  0.0003  0.0000  0.0000  0.0000  0.0007  0.1096  0.0642  0.3243  0.0001 </r>
        <r>  0.0003  0.0000  0.0000  0.0000  0.0007  0.1096  0.0642  0.3243  0.0001 </r>
       </set>
       <set comment="band 8">
        <r>  0.0003  0.0000  0.0000  0.0000  0.2808  0.0148  0.0644  0.0448  0.0941 </r>
        <r>  0.0003  0.0000  0.0000  0.0000  0.2808  0.0148  0.0644  0.0448  0.0941 </r>
       </set>
       <set comment="band 9">
        <r>  0.0000  0.0000  0.0000  0.0000  0.0830  0.0135  0.3336  0.0421  0.0282 </r>
        <r>  0.0000  0.0000  0.0000  0.0000  0.0830  0.0135  0.3336  0.0421  0.0282 </r>
       </set>
       <set comment="band 10">
        <r>  0.0000  0.0000  0.0000  0.0000  0.0835  0.1240  0.0001  0.0426  0.2502 </r>
        <r>  0.0000  0.0000  0.0000  0.0000  0.0835  0.1240  0.0001  0.0426  0.2502 </r>
       </set>
       <set comment="band 11">
        <r>  0.2938  0.0059  0.0117  0.0176  0.0009  0.0005  0.0015  0.0015  0.0003 </r>
        <r>  0.2938  0.0059  0.0117  0.0176  0.0009  0.0005  0.0015  0.0015  0.0003 </r>
       </set>
       <set comment="band 12">
        <r>  0.2937  0.0059  0.0117  0.0176  0.0022  0.0001  0.0015  0.0003  0.0007 </r>
        <r>  0.2937  0.0059  0.0117  0.0176  0.0022  0.0001  0.0015  0.0003  0.0007 </r>
       </set>
       <set comment="band 13">
        <r>  0.0000  0.1859  0.0001  0.0621  0.0004  0.0006  0.0000  0.0002  0.0013 </r>
        <r>  0.0000  0.1859  0.0001  0.0621  0.0004  0.0006  0.0000  0.0002  0.0013 </r>
       </set>
       <set comment="band 14">
        <r>  0.0000  0.0207  0.1657  0.0621  0.0004  0.0001  0.0017  0.0002  0.0001 </r>
        <r>  0.0000  0.0207  0.1657  0.0621  0.0004  0.0001  0.0017  0.0002  0.0001 </r>
       </set>
       <set comment="band 15">
        <r>  0.0526  0.0154  0.0308  0.0462  0.0000  0.0063  0.0048  0.0190  0.0000 </r>
        <r>  0.0526  0.0154  0.0308  0.0462  0.0000  0.0063  0.0048  0.0190  0.0000 </r>
       </set>
       <set comment="band 16">
        <r>  0.0525  0.0159  0.0307  0.0462  0.0174  0.0005  0.0048  0.0016  0.0058 </r>
        <r>  0.0525  0.0159  0.0307  0.0462  0.0174  0.0005  0.0048  0.0016  0.0058 </r>
       </set>
       <set comment="band 17">
        <r>  0.0006  0.2206  0.0004  0.0740  0.0039  0.0059  0.0000  0.0021  0.0117 </r>
        <r>  0.0006  0.2206  0.0004  0.0740  0.0039  0.0059  0.0000  0.0021  0.0117 </r>
       </set>
       <set comment="band 18">
        <r>  0.0000  0.0247  0.1973  0.0740  0.0040  0.0007  0.0158  0.0020  0.0014 </r>
        <r>  0.0000  0.0247  0.1973  0.0740  0.0040  0.0007  0.0158  0.0020  0.0014 </r>
       </set>
       <set comment="band 19">
        <r>  0.0380  0.0314  0.0624  0.0937  0.0105  0.0003  0.0049  0.0001  0.0041 </r>
        <r>  0.0380  0.0314  0.0624  0.0937  0.0105  0.0003  0.0049  0.0001  0.0041 </r>
       </set>
       <set comment="band 20">
        <r>  0.0378  0.0333  0.0627  0.0947  0.0015  0.0030  0.0049  0.0088  0.0006 </r>
        <r>  0.0378  0.0333  0.0627  0.0947  0.0015  0.0030  0.0049  0.0088  0.0006 </r>
       </set>
       <set comment="band 21">
        <r>  0.0000  0.0031  0.0245  0.0092  0.0205  0.0068  0.0795  0.0111  0.0084 </r>
        <r>  0.0000  0.0031  0.0245  0.0092  0.0205  0.0068  0.0795  0.0111  0.0084 </r>
       </set>
       <set comment="band 22">
        <r>  0.0003  0.0293  0.0006  0.0106  0.0210  0.0314  0.0000  0.0105  0.0628 </r>
        <r>  0.0003  0.0293  0.0006  0.0106  0.0210  0.0314  0.0000  0.0105  0.0628 </r>
       </set>
       <set comment="band 23">
        <r>  0.0000  0.0000  0.0004  0.0001  0.0104  0.0622  0.0000  0.0207  0.0311 </r>
        <r>  0.0000  0.0000  0.0004  0.0001  0.0104  0.0622  0.0000  0.0207  0.0311 </r>
       </set>
       <set comment="band 24">
        <r>  0.0000  0.0002  0.0013  0.0005  0.0111  0.0590  0.0053  0.0202  0.0298 </r>
        <r>  0.0000  0.0002  0.0013  0.0005  0.0111  0.0590  0.0053  0.0202  0.0298 </r>
       </set>
       <set comment="band 25">
        <r>  0.0012  0.0059  0.0013  0.0037  0.0045  0.0067  0.0001  0.0044  0.0120 </r>
        <r>  0.0012  0.0059  0.0013  0.0037  0.0045  0.0067  0.0001  0.0044  0.0120 </r>
       </set>
       <set comment="band 26">
        <r>  0.0000  0.0006  0.0051  0.0019  0.0046  0.0008  0.0185  0.0023  0.0015 </r>
        <r>  0.0000  0.0006  0.0051  0.0019  0.0046  0.0008  0.0185  0.0023  0.0015 </r>
       </set>
       <set comment="band 27">
        <r>  0.0213  0.0047  0.0089  0.0135  0.0015  0.0020  0.0001  0.0034  0.0023 </r>
        <r>  0.0213  0.0047  0.0089  0.0135  0.0015  0.0020  0.0001  0.0034  0.0023 </r>
       </set>
       <set comment="band 28">
        <r>  0.0211  0.0044  0.0080  0.0121  0.0020  0.0012  0.0001  0.0011  0.0023 </r>
        <r>  0.0211  0.0044  0.0080  0.0121  0.0020  0.0012  0.0001  0.0011  0.0023 </r>
       </set>
       <set comment="band 29">
        <r>  0.0000  0.0016  0.0126  0.0047  0.0203  0.0034  0.0810  0.0101  0.0068 </r>
        <r>  0.0000  0.0016  0.0126  0.0047  0.0203  0.0034  0.0810  0.0101  0.0068 </r>
       </set>
       <set comment="band 30">
        <r>  0.0008  0.0141  0.0004  0.0052  0.0197  0.0295  0.0000  0.0098  0.0589 </r>
        <r>  0.0008  0.0141  0.0004  0.0052  0.0197  0.0295  0.0000  0.0098  0.0589 </r>
       </set>
       <set comment="band 31">
        <r>  0.0326  0.0002  0.0003  0.0005  0.0645  0.0085  0.0088  0.0255  0.0215 </r>
        <r>  0.0326  0.0002  0.0003  0.0005  0.0645  0.0085  0.0088  0.0255  0.0215 </r>
       </set>
       <set comment="band 32">
        <r>  0.0323  0.0003  0.0003  0.0005  0.0043  0.0282  0.0087  0.0845  0.0016 </r>
        <r>  0.0323  0.0003  0.0003  0.0005  0.0043  0.0282  0.0087  0.0845  0.0016 </r>
       </set>
      </set>
      <set comment="kpoint 200">
       <set comment="band 1">
        <r>  0.0000  0.0000  0.0001  0.0000  0.0833  0.0143  0.3313  0.0409  0.0271 </r>
        <r>  0.0000  0.0000  0.0001  0.0000  0.0833  0.0143  0.3313  0.0409  0.0271 </r>
       </set>
       <set comment="band 2">
        <r>  0.0000  0.0001  0.0000  0.0000  0.0827  0.1255  0.0000  0.0402  0.2487 </r>
        <r>  0.0000  0.0001  0.0000  0.0000  0.0827  0.1255  0.0000  0.0402  0.2487 </r>
       </set>
       <set comment="band 3">
        <r>  0.0003  0.0000  0.0000  0.0000  0.0100  0.0944  0.1012  0.2877  0.0029 </r>
        <r>  0.0003  0.0000  0.0000  0.0000  0.0100  0.0944  0.1012  0.2877  0.0029 </r>
       </set>
       <set comment="band 4">
        <r>  0.0003  0.0000  0.0000  0.0000  0.2889  0.0024  0.1015  0.0071  0.0963 </r>
        <r>  0.0003  0.0000  0.0000  0.0000  0.2889  0.0024  0.1015  0.0071  0.0963 </r>
       </set>
       <set comment="band 5">
        <r>  0.0000  0.0000  0.0000  0.0000  0.0410  0.2486  0.0000  0.0835  0.1250 </r>
        <r>  0.0000  0.0000  0.0000  0.0000  0.0410  0.2486  0.0000  0.0835  0.1250 </r>
       </set>
       <set comment="band 6">
        <r>  0.0000  0.0000  0.0000  0.0000  0.0419  0.2495  0.0000  0.0826  0.1241 </r>
        <r>  0.0000  0.0000  0.0000  0.0000  0.0419  0.2495  0.0000  0.0826  0.1241 </r>
       </set>
       <set comment="band 7">
        <r>  0.0003  0.0000  0.0000  0.0000  0.0006  0.1095  0.0642  0.3245  0.0001 </r>
        <r>  0.0003  0.0000  0.0000  0.0000  0.0006  0.1095  0.0642  0.3245  0.0001 </r>
       </set>
       <set comment="band 8">
        <r>  0.0003  0.0000  0.0000  0.0000  0.2811  0.0148  0.0645  0.0446  0.0939 </r>
        <r>  0.0003  0.0000  0.0000  0.0000  0.2811  0.0148  0.0645  0.0446  0.0939 </r>
       </set>
       <set comment="band 9">
        <r>  0.0000  0.0000  0.0000  0.0000  0.0830  0.0135  0.3337  0.0421  0.0282 </r>
        <r>  0.0000  0.0000  0.0000  0.0000  0.0830  0.0135  0.3337  0.0421  0.0282 </r>
       </set>
       <set comment="band 10">
        <r>  0.0000  0.0000  0.0000  0.0000  0.0833  0.1241  0.0000  0.0427  0.2503 </r>
        <r>  0.0000  0.0000  0.0000  0.0000  0.0833  0.1241  0.0000  0.0427  0.2503 </r>
       </set>
       <set comment="band 11">
        <r>  0.2937  0.0059  0.0118  0.0176  0.0009  0.0005  0.0015  0.0015  0.0003 </r>
        <r>  0.2937  0.0059  0.0118  0.0176  0.0009  0.0005  0.0015  0.0015  0.0003 </r>
       </set>
       <set comment="band 12">
        <r>  0.2937  0.0059  0.0118  0.0176  0.0022  0.0001  0.0015  0.0003  0.0007 </r>
        <r>  0.2937  0.0059  0.0118  0.0176  0.0022  0.0001  0.0015  0.0003  0.0007 </r>
       </set>
       <set comment="band 13">
        <r>  0.0000  0.1864  0.0000  0.0621  0.0004  0.0006  0.0000  0.0002  0.0013 </r>
        <r>  0.0000  0.1864  0.0000  0.0621  0.0004  0.0006  0.0000  0.0002  0.0013 </r>
       </set>
       <set comment="band 14">
        <r>  0.0000  0.0207  0.1657  0.0621  0.0004  0.0001  0.0017  0.0002  0.0001 </r>
        <r>  0.0000  0.0207  0.1657  0.0621  0.0004  0.0001  0.0017  0.0002  0.0001 </r>
       </set>
       <set comment="band 15">
        <r>  0.0526  0.0154  0.0308  0.0461  0.0000  0.0063  0.0048  0.0190  0.0000 </r>
        <r>  0.0526  0.0154  0.0308  0.0461  0.0000  0.0063  0.0048  0.0190  0.0000 </r>
       </set>
       <set comment="band 16">
        <r>  0.0526  0.0154  0.0308  0.0461  0.0174  0.0005  0.0048  0.0016  0.0058 </r>
        <r>  0.0526  0.0154  0.0308  0.0461  0.0174  0.0005  0.0048  0.0016  0.0058 </r>
       </set>
       <set comment="band 17">
        <r>  0.0000  0.2223  0.0000  0.0741  0.0040  0.0059  0.0000  0.0020  0.0119 </r>
        <r>  0.0000  0.2223  0.0000  0.0741  0.0040  0.0059  0.0000  0.0020  0.0119 </r>
       </set>
       <set comment="band 18">
        <r>  0.0000  0.0247  0.1976  0.0741  0.0040  0.0007  0.0158  0.0020  0.0013 </r>
        <r>  0.0000  0.0247  0.1976  0.0741  0.0040  0.0007  0.0158  0.0020  0.0013 </r>
       </set>
       <set comment="band 19">
        <r>  0.0384  0.0315  0.0631  0.0946  0.0104  0.0000  0.0049  0.0000  0.0035 </r>
        <r>  0.0384  0.0315  0.0631  0.0946  0.0104  0.0000  0.0049  0.0000  0.0035 </r>
       </set>
       <set comment="band 20">
        <r>  0.0384  0.0315  0.0631  0.0946  0.0015  0.0030  0.0049  0.0089  0.0005 </r>
        <r>  0.0384  0.0315  0.0631  0.0946  0.0015  0.0030  0.0049  0.0089  0.0005 </r>
       </set>
       <set comment="band 21">
        <r>  0.0000  0.0291  0.0000  0.0097  0.0212  0.0317  0.0000  0.0106  0.0635 </r>
        <r>  0.0000  0.0291  0.0000  0.0097  0.0212  0.0317  0.0000  0.0106  0.0635 </r>
       </set>
       <set comment="band 22">
        <r>  0.0000  0.0032  0.0259  0.0097  0.0212  0.0035  0.0847  0.0106  0.0070 </r>
        <r>  0.0000  0.0032  0.0259  0.0097  0.0212  0.0035  0.0847  0.0106  0.0070 </r>
       </set>
       <set comment="band 23">
        <r>  0.0000  0.0000  0.0000  0.0000  0.0104  0.0623  0.0000  0.0208  0.0311 </r>
        <r>  0.0000  0.0000  0.0000  0.0000  0.0104  0.0623  0.0000  0.0208  0.0311 </r>
       </set>
       <set comment="band 24">
        <r>  0.0000  0.0000  0.0000  0.0000  0.0104  0.0623  0.0000  0.0208  0.0311 </r>
        <r>  0.0000  0.0000  0.0000  0.0000  0.0104  0.0623  0.0000  0.0208  0.0312 </r>
       </set>
       <set comment="band 25">
        <r>  0.0000  0.0057  0.0000  0.0019  0.0046  0.0069  0.0000  0.0023  0.0139 </r>
        <r>  0.0000  0.0057  0.0000  0.0019  0.0046  0.0069  0.0000  0.0023  0.0139 </r>
       </set>
       <set comment="band 26">
        <r>  0.0000  0.0006  0.0051  0.0019  0.0046  0.0008  0.0185  0.0023  0.0015 </r>
        <r>  0.0000  0.0006  0.0051  0.0019  0.0046  0.0008  0.0185  0.0023  0.0015 </r>
       </set>
       <set comment="band 27">
        <r>  0.0218  0.0046  0.0093  0.0140  0.0008  0.0011  0.0001  0.0032  0.0003 </r>
        <r>  0.0218  0.0046  0.0093  0.0140  0.0008  0.0011  0.0001  0.0032  0.0003 </r>
       </set>
       <set comment="band 28">
        <r>  0.0218  0.0047  0.0093  0.0139  0.0019  0.0007  0.0001  0.0021  0.0006 </r>
        <r>  0.0218  0.0047  0.0093  0.0139  0.0019  0.0007  0.0001  0.0021  0.0006 </r>
       </set>
       <set comment="band 29">
        <r>  0.0000  0.0142  0.0000  0.0047  0.0203  0.0304  0.0000  0.0101  0.0609 </r>
        <r>  0.0000  0.0142  0.0000  0.0047  0.0203  0.0304  0.0000  0.0101  0.0609 </r>
       </set>
       <set comment="band 30">
        <r>  0.0000  0.0016  0.0126  0.0047  0.0203  0.0034  0.0811  0.0101  0.0068 </r>
        <r>  0.0000  0.0016  0.0126  0.0047  0.0203  0.0034  0.0811  0.0101  0.0068 </r>
       </set>
       <set comment="band 31">
        <r>  0.0329  0.0002  0.0003  0.0005  0.0043  0.0285  0.0088  0.0856  0.0014 </r>
        <r>  0.0329  0.0002  0.0003  0.0005  0.0043  0.0285  0.0088  0.0856  0.0014 </r>
       </set>
       <set comment="band 32">
        <r>  0.0329  0.0002  0.0003  0.0005  0.0645  0.0085  0.0088  0.0255  0.0215 </r>
        <r>  0.0329  0.0002  0.0003  0.0005  0.0645  0.0085  0.0088  0.0255  0.0215 </r>
       </set>
      </set>
     </set>
    </set>
   </array>
  </projected>
 </calculation>
 <structure name="finalpos" >
  <crystal>
   <varray name="basis" >
    <v>       4.78363896       0.00000000       0.00000000 </v>
    <v>       2.39181948       4.14275286       0.00000000 </v>
    <v>       2.39181948       1.38091762       3.90582486 </v>
   </varray>
   <i name="volume">     77.40342632 </i>
   <varray name="rec_basis" >
    <v>       0.20904588      -0.12069269      -0.08534262 </v>
    <v>       0.00000000       0.24138539      -0.08534262 </v>
    <v>       0.00000000       0.00000000       0.25602787 </v>
   </varray>
  </crystal>
  <varray name="positions" >
   <v>       0.00000000       0.00000000       0.00000000 </v>
   <v>       0.25000000       0.25000000       0.25000000 </v>
  </varray>
 </structure>
</modeling>
