<?xml version="1.0" encoding="ISO-8859-1"?>
<modeling>
 <generator>
  <i name="program" type="string">vasp </i>
  <i name="version" type="string">5.3.5  </i>
  <i name="subversion" type="string">31Mar14 (build Oct 03 2017 06:08:24) complex                          parallel </i>
  <i name="platform" type="string">LinuxIFC </i>
  <i name="date" type="string">2018 06 22 </i>
  <i name="time" type="string">12:19:26 </i>
 </generator>
 <incar>
  <i type="string" name="SYSTEM"> beta</i>
  <i type="int" name="ISTART">     0</i>
  <i type="string" name="PREC">normal</i>
  <i type="int" name="IALGO">    48</i>
  <i type="int" name="ICHARG">     2</i>
  <i name="EDIFF">      0.00000100</i>
  <i name="ENCUT">    500.00000000</i>
  <i type="logical" name="LREAL"> F  </i>
  <i type="int" name="ISMEAR">     0</i>
  <i name="SIGMA">      0.10000000</i>
  <i type="logical" name="LWAVE"> F  </i>
  <i type="logical" name="LCHARG"> T  </i>
  <i type="logical" name="LORBIT"> F  </i>
 </incar>
 <kpoints>
  <generation param="Monkhorst-Pack">
   <v type="int" name="divisions">      11       11       11 </v>
   <v name="usershift">      0.00000000       0.00000000       0.00000000 </v>
   <v name="genvec1">      0.09090909       0.00000000       0.00000000 </v>
   <v name="genvec2">     -0.00000000       0.09090909       0.00000000 </v>
   <v name="genvec3">      0.00000000       0.00000000       0.09090909 </v>
   <v name="shift">      0.00000000       0.00000000       0.00000000 </v>
  </generation>
  <varray name="kpointlist" >
   <v>       0.00000000       0.00000000       0.00000000 </v>
   <v>       0.09090909       0.00000000       0.00000000 </v>
   <v>       0.18181818       0.00000000       0.00000000 </v>
   <v>       0.27272727       0.00000000       0.00000000 </v>
   <v>       0.36363636       0.00000000       0.00000000 </v>
   <v>       0.45454545       0.00000000       0.00000000 </v>
   <v>       0.09090909       0.09090909       0.00000000 </v>
   <v>       0.18181818       0.09090909       0.00000000 </v>
   <v>       0.27272727       0.09090909       0.00000000 </v>
   <v>       0.36363636       0.09090909       0.00000000 </v>
   <v>       0.45454545       0.09090909       0.00000000 </v>
   <v>      -0.45454545       0.09090909      -0.00000000 </v>
   <v>      -0.36363636       0.09090909      -0.00000000 </v>
   <v>      -0.27272727       0.09090909      -0.00000000 </v>
   <v>      -0.18181818       0.09090909      -0.00000000 </v>
   <v>      -0.09090909       0.09090909      -0.00000000 </v>
   <v>       0.18181818       0.18181818       0.00000000 </v>
   <v>       0.27272727       0.18181818       0.00000000 </v>
   <v>       0.36363636       0.18181818       0.00000000 </v>
   <v>       0.45454545       0.18181818       0.00000000 </v>
   <v>      -0.45454545       0.18181818      -0.00000000 </v>
   <v>      -0.36363636       0.18181818      -0.00000000 </v>
   <v>      -0.27272727       0.18181818      -0.00000000 </v>
   <v>      -0.18181818       0.18181818      -0.00000000 </v>
   <v>       0.27272727       0.27272727       0.00000000 </v>
   <v>       0.36363636       0.27272727       0.00000000 </v>
   <v>       0.45454545       0.27272727       0.00000000 </v>
   <v>      -0.45454545       0.27272727      -0.00000000 </v>
   <v>      -0.36363636       0.27272727      -0.00000000 </v>
   <v>      -0.27272727       0.27272727      -0.00000000 </v>
   <v>       0.36363636       0.36363636       0.00000000 </v>
   <v>       0.45454545       0.36363636       0.00000000 </v>
   <v>      -0.45454545       0.36363636      -0.00000000 </v>
   <v>      -0.36363636       0.36363636      -0.00000000 </v>
   <v>       0.45454545       0.45454545       0.00000000 </v>
   <v>      -0.45454545       0.45454545      -0.00000000 </v>
   <v>       0.09090909       0.09090909       0.09090909 </v>
   <v>       0.18181818       0.09090909       0.09090909 </v>
   <v>       0.27272727       0.09090909       0.09090909 </v>
   <v>       0.36363636       0.09090909       0.09090909 </v>
   <v>       0.45454545       0.09090909       0.09090909 </v>
   <v>      -0.45454545       0.09090909       0.09090909 </v>
   <v>      -0.36363636       0.09090909       0.09090909 </v>
   <v>      -0.27272727       0.09090909       0.09090909 </v>
   <v>      -0.18181818       0.09090909       0.09090909 </v>
   <v>      -0.09090909       0.09090909       0.09090909 </v>
   <v>       0.18181818       0.18181818       0.09090909 </v>
   <v>       0.27272727       0.18181818       0.09090909 </v>
   <v>       0.36363636       0.18181818       0.09090909 </v>
   <v>       0.45454545       0.18181818       0.09090909 </v>
   <v>      -0.45454545       0.18181818       0.09090909 </v>
   <v>      -0.36363636       0.18181818       0.09090909 </v>
   <v>      -0.27272727       0.18181818       0.09090909 </v>
   <v>      -0.18181818       0.18181818       0.09090909 </v>
   <v>      -0.09090909       0.18181818       0.09090909 </v>
   <v>       0.27272727       0.27272727       0.09090909 </v>
   <v>       0.36363636       0.27272727       0.09090909 </v>
   <v>       0.45454545       0.27272727       0.09090909 </v>
   <v>      -0.45454545       0.27272727       0.09090909 </v>
   <v>      -0.36363636       0.27272727       0.09090909 </v>
   <v>      -0.27272727       0.27272727       0.09090909 </v>
   <v>      -0.18181818       0.27272727       0.09090909 </v>
   <v>      -0.09090909       0.27272727       0.09090909 </v>
   <v>       0.36363636       0.36363636       0.09090909 </v>
   <v>       0.45454545       0.36363636       0.09090909 </v>
   <v>      -0.45454545       0.36363636       0.09090909 </v>
   <v>      -0.36363636       0.36363636       0.09090909 </v>
   <v>      -0.27272727       0.36363636       0.09090909 </v>
   <v>      -0.18181818       0.36363636       0.09090909 </v>
   <v>      -0.09090909       0.36363636       0.09090909 </v>
   <v>       0.45454545       0.45454545       0.09090909 </v>
   <v>      -0.45454545       0.45454545       0.09090909 </v>
   <v>      -0.36363636       0.45454545       0.09090909 </v>
   <v>      -0.27272727       0.45454545       0.09090909 </v>
   <v>      -0.18181818       0.45454545       0.09090909 </v>
   <v>      -0.09090909       0.45454545       0.09090909 </v>
   <v>      -0.45454545      -0.45454545       0.09090909 </v>
   <v>      -0.36363636      -0.45454545       0.09090909 </v>
   <v>      -0.27272727      -0.45454545       0.09090909 </v>
   <v>      -0.18181818      -0.45454545       0.09090909 </v>
   <v>      -0.36363636      -0.36363636       0.09090909 </v>
   <v>      -0.27272727      -0.36363636       0.09090909 </v>
   <v>      -0.18181818      -0.36363636       0.09090909 </v>
   <v>      -0.27272727      -0.27272727       0.09090909 </v>
   <v>      -0.18181818      -0.27272727       0.09090909 </v>
   <v>      -0.18181818      -0.18181818       0.09090909 </v>
   <v>       0.18181818       0.18181818       0.18181818 </v>
   <v>       0.27272727       0.18181818       0.18181818 </v>
   <v>       0.36363636       0.18181818       0.18181818 </v>
   <v>       0.45454545       0.18181818       0.18181818 </v>
   <v>      -0.45454545       0.18181818       0.18181818 </v>
   <v>      -0.36363636       0.18181818       0.18181818 </v>
   <v>      -0.27272727       0.18181818       0.18181818 </v>
   <v>      -0.18181818       0.18181818       0.18181818 </v>
   <v>       0.27272727       0.27272727       0.18181818 </v>
   <v>       0.36363636       0.27272727       0.18181818 </v>
   <v>       0.45454545       0.27272727       0.18181818 </v>
   <v>      -0.45454545       0.27272727       0.18181818 </v>
   <v>      -0.36363636       0.27272727       0.18181818 </v>
   <v>      -0.27272727       0.27272727       0.18181818 </v>
   <v>      -0.18181818       0.27272727       0.18181818 </v>
   <v>       0.36363636       0.36363636       0.18181818 </v>
   <v>       0.45454545       0.36363636       0.18181818 </v>
   <v>      -0.45454545       0.36363636       0.18181818 </v>
   <v>      -0.36363636       0.36363636       0.18181818 </v>
   <v>      -0.27272727       0.36363636       0.18181818 </v>
   <v>      -0.18181818       0.36363636       0.18181818 </v>
   <v>       0.45454545       0.45454545       0.18181818 </v>
   <v>      -0.45454545       0.45454545       0.18181818 </v>
   <v>      -0.36363636       0.45454545       0.18181818 </v>
   <v>      -0.27272727       0.45454545       0.18181818 </v>
   <v>      -0.18181818       0.45454545       0.18181818 </v>
   <v>      -0.45454545      -0.45454545       0.18181818 </v>
   <v>      -0.36363636      -0.45454545       0.18181818 </v>
   <v>      -0.27272727      -0.45454545       0.18181818 </v>
   <v>      -0.36363636      -0.36363636       0.18181818 </v>
   <v>      -0.27272727      -0.36363636       0.18181818 </v>
   <v>      -0.27272727      -0.27272727       0.18181818 </v>
   <v>       0.27272727       0.27272727       0.27272727 </v>
   <v>       0.36363636       0.27272727       0.27272727 </v>
   <v>       0.45454545       0.27272727       0.27272727 </v>
   <v>      -0.45454545       0.27272727       0.27272727 </v>
   <v>      -0.36363636       0.27272727       0.27272727 </v>
   <v>      -0.27272727       0.27272727       0.27272727 </v>
   <v>       0.36363636       0.36363636       0.27272727 </v>
   <v>       0.45454545       0.36363636       0.27272727 </v>
   <v>      -0.45454545       0.36363636       0.27272727 </v>
   <v>      -0.36363636       0.36363636       0.27272727 </v>
   <v>      -0.27272727       0.36363636       0.27272727 </v>
   <v>       0.45454545       0.45454545       0.27272727 </v>
   <v>      -0.45454545       0.45454545       0.27272727 </v>
   <v>      -0.36363636       0.45454545       0.27272727 </v>
   <v>      -0.27272727       0.45454545       0.27272727 </v>
   <v>      -0.45454545      -0.45454545       0.27272727 </v>
   <v>      -0.36363636      -0.45454545       0.27272727 </v>
   <v>      -0.36363636      -0.36363636       0.27272727 </v>
   <v>       0.36363636       0.36363636       0.36363636 </v>
   <v>       0.45454545       0.36363636       0.36363636 </v>
   <v>      -0.45454545       0.36363636       0.36363636 </v>
   <v>      -0.36363636       0.36363636       0.36363636 </v>
   <v>       0.45454545       0.45454545       0.36363636 </v>
   <v>      -0.45454545       0.45454545       0.36363636 </v>
   <v>      -0.36363636       0.45454545       0.36363636 </v>
   <v>      -0.45454545      -0.45454545       0.36363636 </v>
   <v>       0.45454545       0.45454545       0.45454545 </v>
   <v>      -0.45454545       0.45454545       0.45454545 </v>
  </varray>
  <varray name="weights" >
   <v>       0.00075131 </v>
   <v>       0.00450789 </v>
   <v>       0.00450789 </v>
   <v>       0.00450789 </v>
   <v>       0.00450789 </v>
   <v>       0.00450789 </v>
   <v>       0.00450789 </v>
   <v>       0.00901578 </v>
   <v>       0.00901578 </v>
   <v>       0.00901578 </v>
   <v>       0.00901578 </v>
   <v>       0.00901578 </v>
   <v>       0.00901578 </v>
   <v>       0.00901578 </v>
   <v>       0.00901578 </v>
   <v>       0.00450789 </v>
   <v>       0.00450789 </v>
   <v>       0.00901578 </v>
   <v>       0.00901578 </v>
   <v>       0.00901578 </v>
   <v>       0.00901578 </v>
   <v>       0.00901578 </v>
   <v>       0.00901578 </v>
   <v>       0.00450789 </v>
   <v>       0.00450789 </v>
   <v>       0.00901578 </v>
   <v>       0.00901578 </v>
   <v>       0.00901578 </v>
   <v>       0.00901578 </v>
   <v>       0.00450789 </v>
   <v>       0.00450789 </v>
   <v>       0.00901578 </v>
   <v>       0.00901578 </v>
   <v>       0.00450789 </v>
   <v>       0.00450789 </v>
   <v>       0.00450789 </v>
   <v>       0.00150263 </v>
   <v>       0.00450789 </v>
   <v>       0.00450789 </v>
   <v>       0.00450789 </v>
   <v>       0.00450789 </v>
   <v>       0.00450789 </v>
   <v>       0.00450789 </v>
   <v>       0.00450789 </v>
   <v>       0.00450789 </v>
   <v>       0.00450789 </v>
   <v>       0.00450789 </v>
   <v>       0.00901578 </v>
   <v>       0.00901578 </v>
   <v>       0.00901578 </v>
   <v>       0.00901578 </v>
   <v>       0.00901578 </v>
   <v>       0.00901578 </v>
   <v>       0.00901578 </v>
   <v>       0.00901578 </v>
   <v>       0.00450789 </v>
   <v>       0.00901578 </v>
   <v>       0.00901578 </v>
   <v>       0.00901578 </v>
   <v>       0.00901578 </v>
   <v>       0.00901578 </v>
   <v>       0.00901578 </v>
   <v>       0.00901578 </v>
   <v>       0.00450789 </v>
   <v>       0.00901578 </v>
   <v>       0.00901578 </v>
   <v>       0.00901578 </v>
   <v>       0.00901578 </v>
   <v>       0.00901578 </v>
   <v>       0.00901578 </v>
   <v>       0.00450789 </v>
   <v>       0.00901578 </v>
   <v>       0.00901578 </v>
   <v>       0.00901578 </v>
   <v>       0.00901578 </v>
   <v>       0.00901578 </v>
   <v>       0.00450789 </v>
   <v>       0.00901578 </v>
   <v>       0.00901578 </v>
   <v>       0.00901578 </v>
   <v>       0.00450789 </v>
   <v>       0.00901578 </v>
   <v>       0.00901578 </v>
   <v>       0.00450789 </v>
   <v>       0.00901578 </v>
   <v>       0.00450789 </v>
   <v>       0.00150263 </v>
   <v>       0.00450789 </v>
   <v>       0.00450789 </v>
   <v>       0.00450789 </v>
   <v>       0.00450789 </v>
   <v>       0.00450789 </v>
   <v>       0.00450789 </v>
   <v>       0.00450789 </v>
   <v>       0.00450789 </v>
   <v>       0.00901578 </v>
   <v>       0.00901578 </v>
   <v>       0.00901578 </v>
   <v>       0.00901578 </v>
   <v>       0.00901578 </v>
   <v>       0.00901578 </v>
   <v>       0.00450789 </v>
   <v>       0.00901578 </v>
   <v>       0.00901578 </v>
   <v>       0.00901578 </v>
   <v>       0.00901578 </v>
   <v>       0.00901578 </v>
   <v>       0.00450789 </v>
   <v>       0.00901578 </v>
   <v>       0.00901578 </v>
   <v>       0.00901578 </v>
   <v>       0.00901578 </v>
   <v>       0.00450789 </v>
   <v>       0.00901578 </v>
   <v>       0.00901578 </v>
   <v>       0.00450789 </v>
   <v>       0.00901578 </v>
   <v>       0.00450789 </v>
   <v>       0.00150263 </v>
   <v>       0.00450789 </v>
   <v>       0.00450789 </v>
   <v>       0.00450789 </v>
   <v>       0.00450789 </v>
   <v>       0.00450789 </v>
   <v>       0.00450789 </v>
   <v>       0.00901578 </v>
   <v>       0.00901578 </v>
   <v>       0.00901578 </v>
   <v>       0.00901578 </v>
   <v>       0.00450789 </v>
   <v>       0.00901578 </v>
   <v>       0.00901578 </v>
   <v>       0.00901578 </v>
   <v>       0.00450789 </v>
   <v>       0.00901578 </v>
   <v>       0.00450789 </v>
   <v>       0.00150263 </v>
   <v>       0.00450789 </v>
   <v>       0.00450789 </v>
   <v>       0.00450789 </v>
   <v>       0.00450789 </v>
   <v>       0.00901578 </v>
   <v>       0.00901578 </v>
   <v>       0.00450789 </v>
   <v>       0.00150263 </v>
   <v>       0.00450789 </v>
  </varray>
 </kpoints>
 <parameters>
  <separator name="general" >
   <i type="string" name="SYSTEM">beta</i>
   <i type="logical" name="LCOMPAT"> F  </i>
  </separator>
  <separator name="electronic" >
   <i type="string" name="PREC">normal</i>
   <i name="ENMAX">    500.00000000</i>
   <i name="ENAUG">    446.84200000</i>
   <i name="EDIFF">      0.00000100</i>
   <i type="int" name="IALGO">    48</i>
   <i type="int" name="IWAVPR">    10</i>
   <i type="int" name="NBANDS">    20</i>
   <i name="NELECT">     28.00000000</i>
   <i type="int" name="TURBO">     0</i>
   <i type="int" name="IRESTART">     0</i>
   <i type="int" name="NREBOOT">     0</i>
   <i type="int" name="NMIN">     0</i>
   <i name="EREF">      0.00000000</i>
   <separator name="electronic smearing" >
    <i type="int" name="ISMEAR">     0</i>
    <i name="SIGMA">      0.10000000</i>
    <i name="KSPACING">      0.50000000</i>
    <i type="logical" name="KGAMMA"> T  </i>
   </separator>
   <separator name="electronic projectors" >
    <i type="logical" name="LREAL"> F  </i>
    <v name="ROPT">      0.00000000      0.00000000      0.00000000      0.00000000</v>
    <i type="int" name="LMAXPAW">  -100</i>
    <i type="int" name="LMAXMIX">     2</i>
    <i type="logical" name="NLSPLINE"> F  </i>
   </separator>
   <separator name="electronic startup" >
    <i type="int" name="ISTART">     0</i>
    <i type="int" name="ICHARG">     2</i>
    <i type="int" name="INIWAV">     1</i>
   </separator>
   <separator name="electronic spin" >
    <i type="int" name="ISPIN">     1</i>
    <i type="logical" name="LNONCOLLINEAR"> F  </i>
    <v name="MAGMOM">      1.00000000      1.00000000      1.00000000      1.00000000      1.00000000</v>
    <i name="NUPDOWN">     -1.00000000</i>
    <i type="logical" name="LSORBIT"> F  </i>
    <v name="SAXIS">      0.00000000      0.00000000      1.00000000</v>
    <i type="logical" name="LSPIRAL"> F  </i>
    <v name="QSPIRAL">      0.00000000      0.00000000      0.00000000</v>
    <i type="logical" name="LZEROZ"> F  </i>
   </separator>
   <separator name="electronic exchange-correlation" >
    <i type="logical" name="LASPH"> F  </i>
    <i type="logical" name="LMETAGGA"> F  </i>
   </separator>
   <separator name="electronic convergence" >
    <i type="int" name="NELM">    60</i>
    <i type="int" name="NELMDL">   -12</i>
    <i type="int" name="NELMIN">     2</i>
    <i name="ENINI">    500.00000000</i>
    <separator name="electronic convergence detail" >
     <i type="logical" name="LDIAG"> T  </i>
     <i type="logical" name="LSUBROT"> F  </i>
     <i name="WEIMIN">      0.00000000</i>
     <i name="EBREAK">      0.00000001</i>
     <i name="DEPER">      0.30000000</i>
     <i type="int" name="NRMM">     4</i>
     <i name="TIME">      0.40000000</i>
    </separator>
   </separator>
   <separator name="electronic mixer" >
    <i name="AMIX">      0.40000000</i>
    <i name="BMIX">      1.00000000</i>
    <i name="AMIN">      0.10000000</i>
    <i name="AMIX_MAG">      1.60000000</i>
    <i name="BMIX_MAG">      1.00000000</i>
    <separator name="electronic mixer details" >
     <i type="int" name="IMIX">     4</i>
     <i type="int" name="MAXMIX">   -45</i>
     <i name="WC">    100.00000000</i>
     <i type="int" name="INIMIX">     1</i>
     <i type="int" name="MIXPRE">     1</i>
     <i type="int" name="MREMOVE">     5</i>
    </separator>
   </separator>
   <separator name="electronic dipolcorrection" >
    <i type="logical" name="LDIPOL"> F  </i>
    <i type="logical" name="LMONO"> F  </i>
    <i type="int" name="IDIPOL">     0</i>
    <i name="EPSILON">      1.00000000</i>
    <v name="DIPOL">   -100.00000000   -100.00000000   -100.00000000</v>
    <i name="EFIELD">      0.00000000</i>
   </separator>
  </separator>
  <separator name="grids" >
   <i type="int" name="NGX">    60</i>
   <i type="int" name="NGY">    60</i>
   <i type="int" name="NGZ">    60</i>
   <i type="int" name="NGXF">   120</i>
   <i type="int" name="NGYF">   120</i>
   <i type="int" name="NGZF">   120</i>
   <i type="logical" name="ADDGRID"> F  </i>
  </separator>
  <separator name="ionic" >
   <i type="int" name="NSW">     0</i>
   <i type="int" name="IBRION">    -1</i>
   <i type="int" name="ISIF">     2</i>
   <i name="PSTRESS">      0.00000000</i>
   <i name="EDIFFG">      0.00001000</i>
   <i type="int" name="NFREE">     0</i>
   <i name="POTIM">      0.50000000</i>
   <i name="SMASS">     -3.00000000</i>
   <i name="SCALEE">      1.00000000</i>
  </separator>
  <separator name="ionic md" >
   <i name="TEBEG">      0.00010000</i>
   <i name="TEEND">      0.00010000</i>
   <i type="int" name="NBLOCK">     1</i>
   <i type="int" name="KBLOCK">     1</i>
   <i type="int" name="NPACO">   256</i>
   <i name="APACO">     16.00000000</i>
  </separator>
  <separator name="symmetry" >
   <i type="int" name="ISYM">     2</i>
   <i name="SYMPREC">      0.00001000</i>
  </separator>
  <separator name="dos" >
   <i type="logical" name="LORBIT"> F  </i>
   <v name="RWIGS">     -1.00000000     -1.00000000     -1.00000000     -1.00000000</v>
   <i type="int" name="NEDOS">   301</i>
   <i name="EMIN">     10.00000000</i>
   <i name="EMAX">    -10.00000000</i>
   <i name="EFERMI">      0.00000000</i>
  </separator>
  <separator name="writing" >
   <i type="int" name="NWRITE">     2</i>
   <i type="logical" name="LWAVE"> F  </i>
   <i type="logical" name="LCHARG"> T  </i>
   <i type="logical" name="LPARD"> F  </i>
   <i type="logical" name="LVTOT"> F  </i>
   <i type="logical" name="LVHAR"> F  </i>
   <i type="logical" name="LELF"> F  </i>
   <i type="logical" name="LOPTICS"> F  </i>
   <v name="STM">      0.00000000      0.00000000      0.00000000      0.00000000      0.00000000      0.00000000      0.00000000</v>
  </separator>
  <separator name="performance" >
   <i type="int" name="NPAR">     4</i>
   <i type="int" name="NSIM">     4</i>
   <i type="int" name="NBLK">    -1</i>
   <i type="logical" name="LPLANE"> T  </i>
   <i type="logical" name="LSCALAPACK"> T  </i>
   <i type="logical" name="LSCAAWARE"> F  </i>
   <i type="logical" name="LSCALU"> F  </i>
   <i type="logical" name="LASYNC"> F  </i>
   <i type="logical" name="LORBITALREAL"> F  </i>
  </separator>
  <separator name="miscellaneous" >
   <i type="int" name="IDIOT">     3</i>
   <i type="logical" name="LMUSIC"> F  </i>
   <v name="POMASS">    121.75000000    208.98000000    127.60000000     78.96000000</v>
   <v name="DARWINR">      0.00000000      0.00000000      0.00000000      0.00000000</v>
   <v name="DARWINV">      1.00000000      1.00000000      1.00000000      1.00000000</v>
   <i type="logical" name="LCORR"> T  </i>
  </separator>
  <i type="logical" name="GGA_COMPAT"> T  </i>
  <i type="logical" name="LBERRY"> F  </i>
  <i type="int" name="ICORELEVEL">     0</i>
  <i type="logical" name="LDAU"> F  </i>
  <i type="int" name="I_CONSTRAINED_M">     0</i>
  <separator name="electronic exchange-correlation" >
   <i type="string" name="GGA">--</i>
   <i type="int" name="VOSKOWN">     0</i>
   <i type="logical" name="LHFCALC"> F  </i>
   <i type="string" name="PRECFOCK"></i>
   <i type="logical" name="LSYMGRAD"> F  </i>
   <i type="logical" name="LHFONE"> F  </i>
   <i type="logical" name="LRHFCALC"> F  </i>
   <i type="logical" name="LTHOMAS"> F  </i>
   <i type="logical" name="LMODELHF"> F  </i>
   <i name="ENCUT4O">     -1.00000000</i>
   <i type="int" name="EXXOEP">     0</i>
   <i type="int" name="FOURORBIT">     0</i>
   <i name="AEXX">      0.00000000</i>
   <i name="HFALPHA">      0.00000000</i>
   <i name="MCALPHA">      0.00000000</i>
   <i name="ALDAX">      1.00000000</i>
   <i name="AGGAX">      1.00000000</i>
   <i name="ALDAC">      1.00000000</i>
   <i name="AGGAC">      1.00000000</i>
   <i type="int" name="NKREDX">     1</i>
   <i type="int" name="NKREDY">     1</i>
   <i type="int" name="NKREDZ">     1</i>
   <i type="logical" name="SHIFTRED"> F  </i>
   <i type="logical" name="ODDONLY"> F  </i>
   <i type="logical" name="EVENONLY"> F  </i>
   <i type="int" name="LMAXFOCK">     0</i>
   <i type="int" name="NMAXFOCKAE">     0</i>
   <i type="logical" name="LFOCKAEDFT"> F  </i>
   <i name="HFSCREEN">      0.00000000</i>
   <i name="HFSCREENC">      0.00000000</i>
   <i type="int" name="NBANDSGWLOW">     0</i>
  </separator>
  <separator name="vdW DFT" >
   <i type="logical" name="LUSE_VDW"> F  </i>
   <i name="Zab_VDW">     -0.84910000</i>
   <i name="PARAM1">      0.12340000</i>
   <i name="PARAM2">      1.00000000</i>
   <i name="PARAM3">      0.00000000</i>
  </separator>
  <separator name="model GW" >
   <i type="int" name="MODEL_GW">     0</i>
   <i name="MODEL_EPS0">     19.45561728</i>
   <i name="MODEL_ALPHA">      1.00000000</i>
  </separator>
  <separator name="linear response parameters" >
   <i type="logical" name="LEPSILON"> F  </i>
   <i type="logical" name="LRPA"> F  </i>
   <i type="logical" name="LNABLA"> F  </i>
   <i type="logical" name="LVEL"> F  </i>
   <i type="int" name="KINTER">     0</i>
   <i name="CSHIFT">      0.10000000</i>
   <i name="OMEGAMAX">     -1.00000000</i>
   <i name="DEG_THRESHOLD">      0.00200000</i>
  </separator>
  <separator name="orbital magnetization" >
   <i type="logical" name="NUCIND"> F  </i>
   <v name="MAGPOS">      0.00000000      0.00000000      0.00000000</v>
   <i type="logical" name="LNICSALL"> T  </i>
   <i type="logical" name="ORBITALMAG"> F  </i>
   <i type="logical" name="LMAGBLOCH"> F  </i>
   <i type="logical" name="LCHIMAG"> F  </i>
   <i type="logical" name="LGAUGE"> T  </i>
   <i type="int" name="MAGATOM">     0</i>
   <v name="MAGDIPOL">      0.00000000      0.00000000      0.00000000</v>
   <v name="AVECCONST">      0.00000000      0.00000000      0.00000000</v>
  </separator>
  <separator name="response functions" >
   <i type="logical" name="LADDER"> F  </i>
   <i type="logical" name="LFXC"> F  </i>
   <i type="logical" name="LHARTREE"> T  </i>
   <i type="int" name="IBSE">     0</i>
   <i type="logical" name="LTCTE"> F  </i>
   <i type="logical" name="LTETE"> F  </i>
   <i type="logical" name="LTRIPLET"> F  </i>
   <i type="logical" name="LFXCEPS"> F  </i>
   <i type="logical" name="LFXHEG"> F  </i>
   <i type="logical" name="L2ORDER"> F  </i>
   <i type="logical" name="LUSEW"> F  </i>
   <i name="ENCUTGW">     -2.00000000</i>
   <i name="ENCUTGWSOFT">     -2.00000000</i>
   <i name="ENCUTLF">     -1.00000000</i>
   <i type="int" name="LMAXMP2">    -1</i>
   <i name="SCISSOR">      0.00000000</i>
   <i type="int" name="NOMEGA">     0</i>
   <i type="int" name="NOMEGAR">     0</i>
   <i type="int" name="NBANDSGW">    -1</i>
   <i type="int" name="NBANDSO">    -1</i>
   <i type="int" name="NBANDSV">    -1</i>
   <i type="int" name="NELM">     1</i>
   <i type="int" name="DIM">     3</i>
   <i type="int" name="ANTIRES">     0</i>
   <i name="OMEGAMAX">    -30.00000000</i>
   <i name="OMEGAMIN">    -30.00000000</i>
   <i name="OMEGATL">   -200.00000000</i>
   <i type="int" name="OMEGAGRID">     0</i>
   <i name="CSHIFT">     -0.10000000</i>
   <i type="logical" name="SELFENERGY"> F  </i>
   <i type="logical" name="LSPECTRAL"> F  </i>
   <i type="logical" name="ODDONLYGW"> F  </i>
   <i type="logical" name="EVENONLYGW"> F  </i>
   <i type="int" name="NKREDLFX">     1</i>
   <i type="int" name="NKREDLFY">     1</i>
   <i type="int" name="NKREDLFZ">     1</i>
   <i type="int" name="MAXMEM">  1800</i>
   <i type="int" name="TELESCOPE">     0</i>
   <i type="int" name="TAUPAR">     1</i>
  </separator>
  <separator name="External order field" >
   <i name="OFIELD_KAPPA">      0.00000000</i>
   <v name="OFIELD_K">      0.00000000      0.00000000      0.00000000</v>
   <i name="OFIELD_Q6_NEAR">      0.00000000</i>
   <i name="OFIELD_Q6_FAR">      0.00000000</i>
   <i name="OFIELD_A">      0.00000000</i>
  </separator>
 </parameters>
 <atominfo>
  <atoms>       5 </atoms>
  <types>       4 </types>
  <array name="atoms" >
   <dimension dim="1">ion</dimension>
   <field type="string">element</field>
   <field type="int">atomtype</field>
   <set>
    <rc><c>Sb</c><c>   1</c></rc>
    <rc><c>Bi</c><c>   2</c></rc>
    <rc><c>Te</c><c>   3</c></rc>
    <rc><c>Te</c><c>   3</c></rc>
    <rc><c>Se</c><c>   4</c></rc>
   </set>
  </array>
  <array name="atomtypes" >
   <dimension dim="1">type</dimension>
   <field type="int">atomspertype</field>
   <field type="string">element</field>
   <field>mass</field>
   <field>valence</field>
   <field type="string">pseudopotential</field>
   <set>
    <rc><c>   1</c><c>Sb</c><c>    121.75000000</c><c>      5.00000000</c><c>  PAW_PBE Sb 06Sep2000                  </c></rc>
    <rc><c>   1</c><c>Bi</c><c>    208.98000000</c><c>      5.00000000</c><c>  PAW_PBE Bi 08Apr2002                  </c></rc>
    <rc><c>   2</c><c>Te</c><c>    127.60000000</c><c>      6.00000000</c><c>  PAW_PBE Te 08Apr2002                  </c></rc>
    <rc><c>   1</c><c>Se</c><c>     78.96000000</c><c>      6.00000000</c><c>  PAW_PBE Se 06Sep2000                  </c></rc>
   </set>
  </array>
 </atominfo>
 <structure name="initialpos" >
  <crystal>
   <varray name="basis" >
    <v>       2.49437122      -0.00000000      10.02974072 </v>
    <v>      -1.24718561       2.16018885      10.02974072 </v>
    <v>      -1.24718561      -2.16018885      10.02974072 </v>
   </varray>
   <i name="volume">    162.13014397 </i>
   <varray name="rec_basis" >
    <v>       0.26726842       0.00000000       0.03323449 </v>
    <v>      -0.13363421       0.23146125       0.03323449 </v>
    <v>      -0.13363421      -0.23146125       0.03323449 </v>
   </varray>
  </crystal>
  <varray name="positions" >
   <v>       0.40086578       0.40086578       0.40086578 </v>
   <v>       0.59660763       0.59660763       0.59660763 </v>
   <v>       0.99905527       0.99905527       0.99905527 </v>
   <v>       0.79095093       0.79095093       0.79095093 </v>
   <v>       0.21252039       0.21252039       0.21252039 </v>
  </varray>
 </structure>
 <calculation>
  <scstep>
   <time name="diag">    2.09    2.09</time>
   <time name="diis">    4.80    4.79</time>
   <time name="orth">    0.05    0.05</time>
   <time name="total">    7.09    7.09</time>
   <energy>
    <i name="alphaZ">     11.54588444 </i>
    <i name="ewald">  -1003.52028380 </i>
    <i name="hartreedc">    -69.88722193 </i>
    <i name="XCdc">   -213.06709662 </i>
    <i name="pawpsdc">   1014.56111916 </i>
    <i name="pawaedc">   -752.93238258 </i>
    <i name="eentropy">     -0.00569777 </i>
    <i name="bandstr">    214.30465439 </i>
    <i name="atom">   1004.43483775 </i>
    <i name="e_fr_energy">    205.43381303 </i>
    <i name="e_wo_entrp">    205.43951081 </i>
    <i name="e_0_energy">    205.43666192 </i>
   </energy>
  </scstep>
  <scstep>
   <time name="diag">    2.10    2.10</time>
   <time name="diis">    5.05    5.04</time>
   <time name="orth">    0.05    0.05</time>
   <time name="total">    7.20    7.20</time>
   <energy>
    <i name="e_fr_energy">     46.03416248 </i>
    <i name="e_wo_entrp">     46.04052914 </i>
    <i name="e_0_energy">     46.03734581 </i>
   </energy>
  </scstep>
  <scstep>
   <time name="diag">    1.81    1.82</time>
   <time name="diis">    4.95    4.95</time>
   <time name="orth">    0.05    0.05</time>
   <time name="total">    6.82    6.82</time>
   <energy>
    <i name="e_fr_energy">      2.54051614 </i>
    <i name="e_wo_entrp">      2.55003307 </i>
    <i name="e_0_energy">      2.54527461 </i>
   </energy>
  </scstep>
  <scstep>
   <time name="diag">    2.09    2.09</time>
   <time name="diis">    4.91    4.91</time>
   <time name="orth">    0.05    0.05</time>
   <time name="total">    7.05    7.06</time>
   <energy>
    <i name="e_fr_energy">    -11.08131583 </i>
    <i name="e_wo_entrp">    -11.07255397 </i>
    <i name="e_0_energy">    -11.07693490 </i>
   </energy>
  </scstep>
  <scstep>
   <time name="diag">    1.92    1.92</time>
   <time name="diis">    5.05    5.05</time>
   <time name="orth">    0.05    0.05</time>
   <time name="total">    7.02    7.02</time>
   <energy>
    <i name="e_fr_energy">    -16.24008390 </i>
    <i name="e_wo_entrp">    -16.23814939 </i>
    <i name="e_0_energy">    -16.23911664 </i>
   </energy>
  </scstep>
  <scstep>
   <time name="diag">    2.10    2.10</time>
   <time name="diis">    4.82    4.82</time>
   <time name="orth">    0.05    0.05</time>
   <time name="total">    6.98    6.98</time>
   <energy>
    <i name="e_fr_energy">    -18.15132631 </i>
    <i name="e_wo_entrp">    -18.15074585 </i>
    <i name="e_0_energy">    -18.15103608 </i>
   </energy>
  </scstep>
  <scstep>
   <time name="diag">    2.03    2.03</time>
   <time name="diis">    5.04    5.04</time>
   <time name="orth">    0.05    0.05</time>
   <time name="total">    7.13    7.13</time>
   <energy>
    <i name="e_fr_energy">    -18.84988568 </i>
    <i name="e_wo_entrp">    -18.84980195 </i>
    <i name="e_0_energy">    -18.84984382 </i>
   </energy>
  </scstep>
  <scstep>
   <time name="diag">    2.09    2.10</time>
   <time name="diis">    4.77    4.77</time>
   <time name="orth">    0.05    0.05</time>
   <time name="total">    6.92    6.93</time>
   <energy>
    <i name="e_fr_energy">    -19.12793805 </i>
    <i name="e_wo_entrp">    -19.12791279 </i>
    <i name="e_0_energy">    -19.12792542 </i>
   </energy>
  </scstep>
  <scstep>
   <time name="diag">    2.11    2.11</time>
   <time name="diis">   11.42   11.41</time>
   <time name="orth">    0.05    0.05</time>
   <time name="total">   13.58   13.58</time>
   <energy>
    <i name="e_fr_energy">    -19.31284947 </i>
    <i name="e_wo_entrp">    -19.31284898 </i>
    <i name="e_0_energy">    -19.31284922 </i>
   </energy>
  </scstep>
  <scstep>
   <time name="diag">    2.10    2.10</time>
   <time name="diis">   11.82   11.81</time>
   <time name="orth">    0.05    0.05</time>
   <time name="total">   13.98   13.97</time>
   <energy>
    <i name="e_fr_energy">    -19.33580664 </i>
    <i name="e_wo_entrp">    -19.33580660 </i>
    <i name="e_0_energy">    -19.33580662 </i>
   </energy>
  </scstep>
  <scstep>
   <time name="diag">    2.09    2.09</time>
   <time name="diis">   11.47   11.47</time>
   <time name="orth">    0.05    0.05</time>
   <time name="total">   13.62   13.62</time>
   <energy>
    <i name="e_fr_energy">    -19.33719887 </i>
    <i name="e_wo_entrp">    -19.33719884 </i>
    <i name="e_0_energy">    -19.33719885 </i>
   </energy>
  </scstep>
  <scstep>
   <time name="diag">    1.69    1.69</time>
   <time name="diis">   10.51   10.50</time>
   <time name="orth">    0.05    0.05</time>
   <time name="total">   13.09   13.08</time>
   <energy>
    <i name="e_fr_energy">    -19.33726295 </i>
    <i name="e_wo_entrp">    -19.33726291 </i>
    <i name="e_0_energy">    -19.33726293 </i>
   </energy>
  </scstep>
  <scstep>
   <time name="diag">    1.68    1.68</time>
   <time name="diis">    8.37    8.36</time>
   <time name="orth">    0.05    0.05</time>
   <time name="total">   11.05   11.04</time>
   <energy>
    <i name="e_fr_energy">    -18.90811212 </i>
    <i name="e_wo_entrp">    -18.90809471 </i>
    <i name="e_0_energy">    -18.90810341 </i>
   </energy>
  </scstep>
  <scstep>
   <time name="diag">    1.68    1.68</time>
   <time name="diis">    8.80    8.80</time>
   <time name="orth">    0.05    0.05</time>
   <time name="total">   11.50   11.49</time>
   <energy>
    <i name="e_fr_energy">    -18.90272352 </i>
    <i name="e_wo_entrp">    -18.90270131 </i>
    <i name="e_0_energy">    -18.90271241 </i>
   </energy>
  </scstep>
  <scstep>
   <time name="diag">    1.92    1.92</time>
   <time name="diis">   10.37   10.36</time>
   <time name="orth">    0.05    0.05</time>
   <time name="total">   13.34   13.33</time>
   <energy>
    <i name="e_fr_energy">    -18.90414570 </i>
    <i name="e_wo_entrp">    -18.90412627 </i>
    <i name="e_0_energy">    -18.90413598 </i>
   </energy>
  </scstep>
  <scstep>
   <time name="diag">    1.93    1.93</time>
   <time name="diis">   10.87   10.86</time>
   <time name="orth">    0.05    0.05</time>
   <time name="total">   13.83   13.82</time>
   <energy>
    <i name="e_fr_energy">    -18.90414510 </i>
    <i name="e_wo_entrp">    -18.90412710 </i>
    <i name="e_0_energy">    -18.90413610 </i>
   </energy>
  </scstep>
  <scstep>
   <time name="diag">    1.96    1.97</time>
   <time name="diis">   10.87   10.87</time>
   <time name="orth">    0.05    0.05</time>
   <time name="total">   13.86   13.87</time>
   <energy>
    <i name="e_fr_energy">    -18.90422043 </i>
    <i name="e_wo_entrp">    -18.90420324 </i>
    <i name="e_0_energy">    -18.90421184 </i>
   </energy>
  </scstep>
  <scstep>
   <time name="diag">    2.02    2.02</time>
   <time name="diis">   10.69   10.68</time>
   <time name="orth">    0.05    0.05</time>
   <time name="total">   13.73   13.73</time>
   <energy>
    <i name="e_fr_energy">    -18.90423897 </i>
    <i name="e_wo_entrp">    -18.90422175 </i>
    <i name="e_0_energy">    -18.90423036 </i>
   </energy>
  </scstep>
  <scstep>
   <time name="diag">    2.08    2.08</time>
   <time name="diis">   10.84   10.83</time>
   <time name="orth">    0.05    0.05</time>
   <time name="total">   13.98   13.97</time>
   <energy>
    <i name="e_fr_energy">    -18.90424059 </i>
    <i name="e_wo_entrp">    -18.90422347 </i>
    <i name="e_0_energy">    -18.90423203 </i>
   </energy>
  </scstep>
  <scstep>
   <time name="diag">    2.11    2.11</time>
   <time name="diis">    8.11    8.10</time>
   <time name="orth">    0.05    0.05</time>
   <time name="total">   10.40   10.40</time>
   <energy>
    <i name="alphaZ">     11.54588444 </i>
    <i name="ewald">  -1003.52028380 </i>
    <i name="hartreedc">    -73.59749144 </i>
    <i name="XCdc">   -212.52468509 </i>
    <i name="pawpsdc">   1659.41397368 </i>
    <i name="pawaedc">  -1397.95492741 </i>
    <i name="eentropy">     -0.00001715 </i>
    <i name="bandstr">     -6.70153188 </i>
    <i name="atom">   1004.43483775 </i>
    <i name="e_fr_energy">    -18.90424090 </i>
    <i name="e_wo_entrp">    -18.90422375 </i>
    <i name="e_0_energy">    -18.90423232 </i>
   </energy>
  </scstep>
  <structure>
   <crystal>
    <varray name="basis" >
     <v>       2.49437122      -0.00000000      10.02974072 </v>
     <v>      -1.24718561       2.16018885      10.02974072 </v>
     <v>      -1.24718561      -2.16018885      10.02974072 </v>
    </varray>
    <i name="volume">    162.13014397 </i>
    <varray name="rec_basis" >
     <v>       0.26726842       0.00000000       0.03323449 </v>
     <v>      -0.13363421       0.23146125       0.03323449 </v>
     <v>      -0.13363421      -0.23146125       0.03323449 </v>
    </varray>
   </crystal>
   <varray name="positions" >
    <v>       0.40086578       0.40086578       0.40086578 </v>
    <v>       0.59660763       0.59660763       0.59660763 </v>
    <v>       0.99905527       0.99905527       0.99905527 </v>
    <v>       0.79095093       0.79095093       0.79095093 </v>
    <v>       0.21252039       0.21252039       0.21252039 </v>
   </varray>
  </structure>
  <varray name="forces" >
   <v>       0.00000000       0.00000000      -0.01958299 </v>
   <v>      -0.00000000      -0.00000000       0.01316893 </v>
   <v>      -0.00000000      -0.00000000       0.03915468 </v>
   <v>       0.00000000       0.00000000      -0.11312241 </v>
   <v>      -0.00000000      -0.00000000       0.08038179 </v>
  </varray>
  <varray name="stress" >
   <v>      -0.58783242       0.00000000       0.00000000 </v>
   <v>       0.00000000      -0.58783242      -0.00000000 </v>
   <v>       0.00000000      -0.00000000      -0.34395185 </v>
  </varray>
  <energy>
   <i name="e_fr_energy">    -18.90424090 </i>
   <i name="e_wo_entrp">    -18.90423232 </i>
   <i name="e_0_energy">     -0.00001715 </i>
  </energy>
  <time name="totalsc">  220.26  220.31</time>
  <eigenvalues>
   <array>
    <dimension dim="1">band</dimension>
    <dimension dim="2">kpoint</dimension>
    <dimension dim="3">spin</dimension>
    <field>eigene</field>
    <field>occ</field>
    <set>
     <set comment="spin 1">
      <set comment="kpoint 1">
       <r>   -8.4884    1.0000 </r>
       <r>   -7.1321    1.0000 </r>
       <r>   -6.3384    1.0000 </r>
       <r>   -3.9519    1.0000 </r>
       <r>   -2.3309    1.0000 </r>
       <r>    2.8858    1.0000 </r>
       <r>    3.2367    1.0000 </r>
       <r>    3.2367    1.0000 </r>
       <r>    3.4070    1.0000 </r>
       <r>    3.5471    1.0000 </r>
       <r>    3.5471    1.0000 </r>
       <r>    4.3659    1.0000 </r>
       <r>    4.3659    1.0000 </r>
       <r>    5.2383    0.9861 </r>
       <r>    5.5348    0.0232 </r>
       <r>    6.0151    0.0000 </r>
       <r>    6.0151    0.0000 </r>
       <r>    7.1958    0.0000 </r>
       <r>    7.4005    0.0000 </r>
       <r>   10.3007    0.0000 </r>
      </set>
      <set comment="kpoint 2">
       <r>   -8.4259    1.0000 </r>
       <r>   -7.0695    1.0000 </r>
       <r>   -6.2924    1.0000 </r>
       <r>   -4.0072    1.0000 </r>
       <r>   -2.3917    1.0000 </r>
       <r>    2.3949    1.0000 </r>
       <r>    2.6922    1.0000 </r>
       <r>    3.0293    1.0000 </r>
       <r>    3.4796    1.0000 </r>
       <r>    3.5231    1.0000 </r>
       <r>    3.7751    1.0000 </r>
       <r>    4.2124    1.0000 </r>
       <r>    4.2610    1.0000 </r>
       <r>    4.7643    1.0000 </r>
       <r>    6.0642    0.0000 </r>
       <r>    6.3223    0.0000 </r>
       <r>    6.5363    0.0000 </r>
       <r>    7.0766    0.0000 </r>
       <r>    7.3773    0.0000 </r>
       <r>    7.5508    0.0000 </r>
      </set>
      <set comment="kpoint 3">
       <r>   -8.2440    1.0000 </r>
       <r>   -6.8878    1.0000 </r>
       <r>   -6.1625    1.0000 </r>
       <r>   -4.1831    1.0000 </r>
       <r>   -2.5880    1.0000 </r>
       <r>    1.8331    1.0000 </r>
       <r>    1.9600    1.0000 </r>
       <r>    2.6203    1.0000 </r>
       <r>    2.6922    1.0000 </r>
       <r>    3.1962    1.0000 </r>
       <r>    3.8564    1.0000 </r>
       <r>    4.1660    1.0000 </r>
       <r>    4.2428    1.0000 </r>
       <r>    4.7750    1.0000 </r>
       <r>    6.3935    0.0000 </r>
       <r>    6.5236    0.0000 </r>
       <r>    6.7584    0.0000 </r>
       <r>    7.3517    0.0000 </r>
       <r>    7.4855    0.0000 </r>
       <r>    9.5092    0.0000 </r>
      </set>
      <set comment="kpoint 4">
       <r>   -7.9635    1.0000 </r>
       <r>   -6.6098    1.0000 </r>
       <r>   -5.9747    1.0000 </r>
       <r>   -4.4845    1.0000 </r>
       <r>   -2.9308    1.0000 </r>
       <r>    1.0955    1.0000 </r>
       <r>    1.6270    1.0000 </r>
       <r>    2.0793    1.0000 </r>
       <r>    2.3908    1.0000 </r>
       <r>    2.7792    1.0000 </r>
       <r>    3.2281    1.0000 </r>
       <r>    4.1888    1.0000 </r>
       <r>    4.2608    1.0000 </r>
       <r>    4.6958    1.0000 </r>
       <r>    6.1746    0.0000 </r>
       <r>    6.7543    0.0000 </r>
       <r>    6.7765    0.0000 </r>
       <r>    7.8300    0.0000 </r>
       <r>    8.0123    0.0000 </r>
       <r>    9.0580    0.0000 </r>
      </set>
      <set comment="kpoint 5">
       <r>   -7.6354    1.0000 </r>
       <r>   -6.2874    1.0000 </r>
       <r>   -5.7889    1.0000 </r>
       <r>   -4.8437    1.0000 </r>
       <r>   -3.3629    1.0000 </r>
       <r>    0.4512    1.0000 </r>
       <r>    1.6011    1.0000 </r>
       <r>    1.9097    1.0000 </r>
       <r>    2.1799    1.0000 </r>
       <r>    2.4500    1.0000 </r>
       <r>    2.6827    1.0000 </r>
       <r>    3.6765    1.0000 </r>
       <r>    4.2499    1.0000 </r>
       <r>    4.6838    1.0000 </r>
       <r>    5.9751    0.0000 </r>
       <r>    6.6198    0.0000 </r>
       <r>    7.2667    0.0000 </r>
       <r>    7.9829    0.0000 </r>
       <r>    8.5324    0.0000 </r>
       <r>    8.9103    0.0000 </r>
      </set>
      <set comment="kpoint 6">
       <r>   -7.3797    1.0000 </r>
       <r>   -6.0107    1.0000 </r>
       <r>   -5.7472    1.0000 </r>
       <r>   -5.0588    1.0000 </r>
       <r>   -3.7117    1.0000 </r>
       <r>    0.0931    1.0000 </r>
       <r>    1.7445    1.0000 </r>
       <r>    1.9427    1.0000 </r>
       <r>    2.0789    1.0000 </r>
       <r>    2.2671    1.0000 </r>
       <r>    2.3199    1.0000 </r>
       <r>    3.1686    1.0000 </r>
       <r>    4.2338    1.0000 </r>
       <r>    4.7233    1.0000 </r>
       <r>    5.8294    0.0000 </r>
       <r>    6.5309    0.0000 </r>
       <r>    7.7388    0.0000 </r>
       <r>    7.9995    0.0000 </r>
       <r>    8.7792    0.0000 </r>
       <r>    8.9460    0.0000 </r>
      </set>
      <set comment="kpoint 7">
       <r>   -8.4252    1.0000 </r>
       <r>   -7.0753    1.0000 </r>
       <r>   -6.2838    1.0000 </r>
       <r>   -4.0146    1.0000 </r>
       <r>   -2.3877    1.0000 </r>
       <r>    2.4189    1.0000 </r>
       <r>    2.7141    1.0000 </r>
       <r>    3.0317    1.0000 </r>
       <r>    3.4315    1.0000 </r>
       <r>    3.5043    1.0000 </r>
       <r>    3.6377    1.0000 </r>
       <r>    4.2999    1.0000 </r>
       <r>    4.3367    1.0000 </r>
       <r>    4.8557    1.0000 </r>
       <r>    5.9670    0.0000 </r>
       <r>    6.2317    0.0000 </r>
       <r>    6.5087    0.0000 </r>
       <r>    7.0905    0.0000 </r>
       <r>    7.4666    0.0000 </r>
       <r>    7.5821    0.0000 </r>
      </set>
      <set comment="kpoint 8">
       <r>   -8.3025    1.0000 </r>
       <r>   -6.9576    1.0000 </r>
       <r>   -6.1895    1.0000 </r>
       <r>   -4.1321    1.0000 </r>
       <r>   -2.5194    1.0000 </r>
       <r>    2.0027    1.0000 </r>
       <r>    2.2362    1.0000 </r>
       <r>    2.6094    1.0000 </r>
       <r>    2.9584    1.0000 </r>
       <r>    3.2823    1.0000 </r>
       <r>    3.5093    1.0000 </r>
       <r>    4.2714    1.0000 </r>
       <r>    4.6081    1.0000 </r>
       <r>    4.8923    1.0000 </r>
       <r>    5.9570    0.0000 </r>
       <r>    6.4030    0.0000 </r>
       <r>    6.7187    0.0000 </r>
       <r>    7.3792    0.0000 </r>
       <r>    7.6225    0.0000 </r>
       <r>    8.0854    0.0000 </r>
      </set>
      <set comment="kpoint 9">
       <r>   -8.0701    1.0000 </r>
       <r>   -6.7289    1.0000 </r>
       <r>   -6.0264    1.0000 </r>
       <r>   -4.3687    1.0000 </r>
       <r>   -2.7995    1.0000 </r>
       <r>    1.5583    1.0000 </r>
       <r>    1.6139    1.0000 </r>
       <r>    2.1533    1.0000 </r>
       <r>    2.4593    1.0000 </r>
       <r>    2.6490    1.0000 </r>
       <r>    3.5267    1.0000 </r>
       <r>    4.2179    1.0000 </r>
       <r>    4.4958    1.0000 </r>
       <r>    4.8704    1.0000 </r>
       <r>    6.1500    0.0000 </r>
       <r>    6.5278    0.0000 </r>
       <r>    6.7042    0.0000 </r>
       <r>    7.5380    0.0000 </r>
       <r>    8.3359    0.0000 </r>
       <r>    8.7707    0.0000 </r>
      </set>
      <set comment="kpoint 10">
       <r>   -7.7612    1.0000 </r>
       <r>   -6.4217    1.0000 </r>
       <r>   -5.8365    1.0000 </r>
       <r>   -4.7003    1.0000 </r>
       <r>   -3.2040    1.0000 </r>
       <r>    0.8364    1.0000 </r>
       <r>    1.4441    1.0000 </r>
       <r>    1.8280    1.0000 </r>
       <r>    2.0626    1.0000 </r>
       <r>    2.3805    1.0000 </r>
       <r>    3.4019    1.0000 </r>
       <r>    3.8159    1.0000 </r>
       <r>    4.2080    1.0000 </r>
       <r>    4.5928    1.0000 </r>
       <r>    6.3435    0.0000 </r>
       <r>    6.7845    0.0000 </r>
       <r>    6.8878    0.0000 </r>
       <r>    7.8352    0.0000 </r>
       <r>    8.5305    0.0000 </r>
       <r>    9.1855    0.0000 </r>
      </set>
      <set comment="kpoint 11">
       <r>   -7.4546    1.0000 </r>
       <r>   -6.1024    1.0000 </r>
       <r>   -5.7171    1.0000 </r>
       <r>   -5.0027    1.0000 </r>
       <r>   -3.6187    1.0000 </r>
       <r>    0.3079    1.0000 </r>
       <r>    1.4609    1.0000 </r>
       <r>    1.6821    1.0000 </r>
       <r>    1.7744    1.0000 </r>
       <r>    2.4796    1.0000 </r>
       <r>    2.9986    1.0000 </r>
       <r>    3.5054    1.0000 </r>
       <r>    3.8175    1.0000 </r>
       <r>    4.4237    1.0000 </r>
       <r>    6.4321    0.0000 </r>
       <r>    6.8226    0.0000 </r>
       <r>    7.3421    0.0000 </r>
       <r>    8.1322    0.0000 </r>
       <r>    8.5664    0.0000 </r>
       <r>    9.0302    0.0000 </r>
      </set>
      <set comment="kpoint 12">
       <r>   -7.3115    1.0000 </r>
       <r>   -5.9167    1.0000 </r>
       <r>   -5.7412    1.0000 </r>
       <r>   -5.1083    1.0000 </r>
       <r>   -3.8100    1.0000 </r>
       <r>    0.0982    1.0000 </r>
       <r>    1.4429    1.0000 </r>
       <r>    1.6187    1.0000 </r>
       <r>    1.9280    1.0000 </r>
       <r>    2.5113    1.0000 </r>
       <r>    2.7938    1.0000 </r>
       <r>    3.1628    1.0000 </r>
       <r>    3.7301    1.0000 </r>
       <r>    4.3982    1.0000 </r>
       <r>    6.4023    0.0000 </r>
       <r>    6.8449    0.0000 </r>
       <r>    7.7816    0.0000 </r>
       <r>    8.1671    0.0000 </r>
       <r>    8.6063    0.0000 </r>
       <r>    8.9727    0.0000 </r>
      </set>
      <set comment="kpoint 13">
       <r>   -7.4558    1.0000 </r>
       <r>   -6.0875    1.0000 </r>
       <r>   -5.7308    1.0000 </r>
       <r>   -5.0076    1.0000 </r>
       <r>   -3.6116    1.0000 </r>
       <r>    0.2472    1.0000 </r>
       <r>    1.5260    1.0000 </r>
       <r>    1.7267    1.0000 </r>
       <r>    1.9382    1.0000 </r>
       <r>    2.3012    1.0000 </r>
       <r>    3.1063    1.0000 </r>
       <r>    3.2650    1.0000 </r>
       <r>    3.8037    1.0000 </r>
       <r>    4.4814    1.0000 </r>
       <r>    6.3378    0.0000 </r>
       <r>    6.8961    0.0000 </r>
       <r>    7.6420    0.0000 </r>
       <r>    8.0584    0.0000 </r>
       <r>    8.5849    0.0000 </r>
       <r>    9.0137    0.0000 </r>
      </set>
      <set comment="kpoint 14">
       <r>   -7.7636    1.0000 </r>
       <r>   -6.3899    1.0000 </r>
       <r>   -5.8831    1.0000 </r>
       <r>   -4.6783    1.0000 </r>
       <r>   -3.2084    1.0000 </r>
       <r>    0.7334    1.0000 </r>
       <r>    1.6201    1.0000 </r>
       <r>    1.9419    1.0000 </r>
       <r>    2.0555    1.0000 </r>
       <r>    2.2604    1.0000 </r>
       <r>    3.3520    1.0000 </r>
       <r>    3.7657    1.0000 </r>
       <r>    4.1338    1.0000 </r>
       <r>    4.6302    1.0000 </r>
       <r>    6.2868    0.0000 </r>
       <r>    6.8274    0.0000 </r>
       <r>    7.0792    0.0000 </r>
       <r>    7.8393    0.0000 </r>
       <r>    8.5390    0.0000 </r>
       <r>    9.1486    0.0000 </r>
      </set>
      <set comment="kpoint 15">
       <r>   -8.0726    1.0000 </r>
       <r>   -6.7013    1.0000 </r>
       <r>   -6.0675    1.0000 </r>
       <r>   -4.3410    1.0000 </r>
       <r>   -2.8129    1.0000 </r>
       <r>    1.4629    1.0000 </r>
       <r>    1.7532    1.0000 </r>
       <r>    2.1380    1.0000 </r>
       <r>    2.4465    1.0000 </r>
       <r>    2.6819    1.0000 </r>
       <r>    3.3972    1.0000 </r>
       <r>    4.2946    1.0000 </r>
       <r>    4.5387    1.0000 </r>
       <r>    4.8430    1.0000 </r>
       <r>    6.1242    0.0000 </r>
       <r>    6.4807    0.0000 </r>
       <r>    6.7153    0.0000 </r>
       <r>    7.6176    0.0000 </r>
       <r>    8.3062    0.0000 </r>
       <r>    8.8007    0.0000 </r>
      </set>
      <set comment="kpoint 16">
       <r>   -8.3042    1.0000 </r>
       <r>   -6.9402    1.0000 </r>
       <r>   -6.2150    1.0000 </r>
       <r>   -4.1116    1.0000 </r>
       <r>   -2.5309    1.0000 </r>
       <r>    2.0290    1.0000 </r>
       <r>    2.1941    1.0000 </r>
       <r>    2.6268    1.0000 </r>
       <r>    2.9599    1.0000 </r>
       <r>    3.2658    1.0000 </r>
       <r>    3.4871    1.0000 </r>
       <r>    4.3357    1.0000 </r>
       <r>    4.6253    1.0000 </r>
       <r>    4.8646    1.0000 </r>
       <r>    5.9405    0.0000 </r>
       <r>    6.4772    0.0000 </r>
       <r>    6.6277    0.0000 </r>
       <r>    7.3867    0.0000 </r>
       <r>    7.6316    0.0000 </r>
       <r>    8.0776    0.0000 </r>
      </set>
      <set comment="kpoint 17">
       <r>   -8.2421    1.0000 </r>
       <r>   -6.9043    1.0000 </r>
       <r>   -6.1407    1.0000 </r>
       <r>   -4.1879    1.0000 </r>
       <r>   -2.5995    1.0000 </r>
       <r>    1.7081    1.0000 </r>
       <r>    2.2331    1.0000 </r>
       <r>    2.5961    1.0000 </r>
       <r>    2.6536    1.0000 </r>
       <r>    3.2837    1.0000 </r>
       <r>    3.6498    1.0000 </r>
       <r>    4.1851    1.0000 </r>
       <r>    4.2277    1.0000 </r>
       <r>    4.7344    1.0000 </r>
       <r>    6.3067    0.0000 </r>
       <r>    6.6103    0.0000 </r>
       <r>    6.6614    0.0000 </r>
       <r>    7.4271    0.0000 </r>
       <r>    7.6376    0.0000 </r>
       <r>    8.4361    0.0000 </r>
      </set>
      <set comment="kpoint 18">
       <r>   -8.0692    1.0000 </r>
       <r>   -6.7336    1.0000 </r>
       <r>   -6.0246    1.0000 </r>
       <r>   -4.3542    1.0000 </r>
       <r>   -2.8198    1.0000 </r>
       <r>    1.2747    1.0000 </r>
       <r>    1.9102    1.0000 </r>
       <r>    2.2237    1.0000 </r>
       <r>    2.6097    1.0000 </r>
       <r>    2.8080    1.0000 </r>
       <r>    3.1809    1.0000 </r>
       <r>    4.0723    1.0000 </r>
       <r>    4.4683    1.0000 </r>
       <r>    4.7785    1.0000 </r>
       <r>    6.0955    0.0000 </r>
       <r>    6.6634    0.0000 </r>
       <r>    6.9688    0.0000 </r>
       <r>    7.7166    0.0000 </r>
       <r>    8.1839    0.0000 </r>
       <r>    8.6926    0.0000 </r>
      </set>
      <set comment="kpoint 19">
       <r>   -7.8057    1.0000 </r>
       <r>   -6.4654    1.0000 </r>
       <r>   -5.8671    1.0000 </r>
       <r>   -4.6222    1.0000 </r>
       <r>   -3.1653    1.0000 </r>
       <r>    1.0032    1.0000 </r>
       <r>    1.3577    1.0000 </r>
       <r>    1.7267    1.0000 </r>
       <r>    2.3813    1.0000 </r>
       <r>    2.4697    1.0000 </r>
       <r>    2.8833    1.0000 </r>
       <r>    3.8660    1.0000 </r>
       <r>    4.4892    1.0000 </r>
       <r>    4.7379    1.0000 </r>
       <r>    6.2102    0.0000 </r>
       <r>    6.6422    0.0000 </r>
       <r>    7.2451    0.0000 </r>
       <r>    7.9201    0.0000 </r>
       <r>    8.6890    0.0000 </r>
       <r>    9.0103    0.0000 </r>
      </set>
      <set comment="kpoint 20">
       <r>   -7.5028    1.0000 </r>
       <r>   -6.1452    1.0000 </r>
       <r>   -5.7189    1.0000 </r>
       <r>   -4.9360    1.0000 </r>
       <r>   -3.5719    1.0000 </r>
       <r>    0.6986    1.0000 </r>
       <r>    0.9554    1.0000 </r>
       <r>    1.5824    1.0000 </r>
       <r>    1.7320    1.0000 </r>
       <r>    2.5383    1.0000 </r>
       <r>    2.9525    1.0000 </r>
       <r>    3.6582    1.0000 </r>
       <r>    4.0023    1.0000 </r>
       <r>    4.3276    1.0000 </r>
       <r>    6.7520    0.0000 </r>
       <r>    6.9850    0.0000 </r>
       <r>    7.3995    0.0000 </r>
       <r>    8.5752    0.0000 </r>
       <r>    9.7135    0.0000 </r>
       <r>   10.5397    0.0000 </r>
      </set>
      <set comment="kpoint 21">
       <r>   -7.2723    1.0000 </r>
       <r>   -5.8733    1.0000 </r>
       <r>   -5.6624    1.0000 </r>
       <r>   -5.1576    1.0000 </r>
       <r>   -3.8847    1.0000 </r>
       <r>    0.3168    1.0000 </r>
       <r>    1.0124    1.0000 </r>
       <r>    1.2746    1.0000 </r>
       <r>    1.8176    1.0000 </r>
       <r>    2.5336    1.0000 </r>
       <r>    2.9540    1.0000 </r>
       <r>    3.3906    1.0000 </r>
       <r>    3.6724    1.0000 </r>
       <r>    4.0254    1.0000 </r>
       <r>    7.1284    0.0000 </r>
       <r>    7.3591    0.0000 </r>
       <r>    7.4266    0.0000 </r>
       <r>    8.1018    0.0000 </r>
       <r>    8.5780    0.0000 </r>
       <r>    9.3624    0.0000 </r>
      </set>
      <set comment="kpoint 22">
       <r>   -7.2731    1.0000 </r>
       <r>   -5.8720    1.0000 </r>
       <r>   -5.6547    1.0000 </r>
       <r>   -5.1680    1.0000 </r>
       <r>   -3.8828    1.0000 </r>
       <r>    0.2548    1.0000 </r>
       <r>    1.0138    1.0000 </r>
       <r>    1.3500    1.0000 </r>
       <r>    2.0893    1.0000 </r>
       <r>    2.5030    1.0000 </r>
       <r>    2.6470    1.0000 </r>
       <r>    3.1585    1.0000 </r>
       <r>    3.8139    1.0000 </r>
       <r>    4.1657    1.0000 </r>
       <r>    6.9629    0.0000 </r>
       <r>    7.2199    0.0000 </r>
       <r>    7.7785    0.0000 </r>
       <r>    8.2331    0.0000 </r>
       <r>    8.6634    0.0000 </r>
       <r>    8.9841    0.0000 </r>
      </set>
      <set comment="kpoint 23">
       <r>   -7.5055    1.0000 </r>
       <r>   -6.1022    1.0000 </r>
       <r>   -5.7740    1.0000 </r>
       <r>   -4.9201    1.0000 </r>
       <r>   -3.5749    1.0000 </r>
       <r>    0.5442    1.0000 </r>
       <r>    1.0276    1.0000 </r>
       <r>    1.8598    1.0000 </r>
       <r>    2.0838    1.0000 </r>
       <r>    2.2407    1.0000 </r>
       <r>    2.5421    1.0000 </r>
       <r>    3.5782    1.0000 </r>
       <r>    4.0312    1.0000 </r>
       <r>    4.5609    1.0000 </r>
       <r>    6.5509    0.0000 </r>
       <r>    7.0232    0.0000 </r>
       <r>    7.4072    0.0000 </r>
       <r>    8.2808    0.0000 </r>
       <r>    9.0206    0.0000 </r>
       <r>    9.4899    0.0000 </r>
      </set>
      <set comment="kpoint 24">
       <r>   -7.8095    1.0000 </r>
       <r>   -6.4201    1.0000 </r>
       <r>   -5.9276    1.0000 </r>
       <r>   -4.6004    1.0000 </r>
       <r>   -3.1691    1.0000 </r>
       <r>    1.0689    1.0000 </r>
       <r>    1.2918    1.0000 </r>
       <r>    2.0190    1.0000 </r>
       <r>    2.0540    1.0000 </r>
       <r>    2.5842    1.0000 </r>
       <r>    2.6112    1.0000 </r>
       <r>    4.1903    1.0000 </r>
       <r>    4.3743    1.0000 </r>
       <r>    4.8383    1.0000 </r>
       <r>    6.0882    0.0000 </r>
       <r>    6.7695    0.0000 </r>
       <r>    6.8845    0.0000 </r>
       <r>    8.0195    0.0000 </r>
       <r>    8.9249    0.0000 </r>
       <r>    8.9906    0.0000 </r>
      </set>
      <set comment="kpoint 25">
       <r>   -7.9612    1.0000 </r>
       <r>   -6.6232    1.0000 </r>
       <r>   -5.9697    1.0000 </r>
       <r>   -4.4515    1.0000 </r>
       <r>   -2.9703    1.0000 </r>
       <r>    0.8425    1.0000 </r>
       <r>    1.9395    1.0000 </r>
       <r>    2.2888    1.0000 </r>
       <r>    2.4152    1.0000 </r>
       <r>    3.0064    1.0000 </r>
       <r>    3.3050    1.0000 </r>
       <r>    3.7748    1.0000 </r>
       <r>    4.0450    1.0000 </r>
       <r>    4.1119    1.0000 </r>
       <r>    6.6328    0.0000 </r>
       <r>    7.0040    0.0000 </r>
       <r>    7.3271    0.0000 </r>
       <r>    7.7997    0.0000 </r>
       <r>    7.8702    0.0000 </r>
       <r>    8.7134    0.0000 </r>
      </set>
      <set comment="kpoint 26">
       <r>   -7.7606    1.0000 </r>
       <r>   -6.4092    1.0000 </r>
       <r>   -5.8752    1.0000 </r>
       <r>   -4.6478    1.0000 </r>
       <r>   -3.2335    1.0000 </r>
       <r>    0.5863    1.0000 </r>
       <r>    1.6048    1.0000 </r>
       <r>    2.1631    1.0000 </r>
       <r>    2.2402    1.0000 </r>
       <r>    2.5080    1.0000 </r>
       <r>    2.9876    1.0000 </r>
       <r>    3.3886    1.0000 </r>
       <r>    4.2871    1.0000 </r>
       <r>    4.5683    1.0000 </r>
       <r>    6.4260    0.0000 </r>
       <r>    6.6343    0.0000 </r>
       <r>    7.6381    0.0000 </r>
       <r>    8.0014    0.0000 </r>
       <r>    8.4747    0.0000 </r>
       <r>    9.0036    0.0000 </r>
      </set>
      <set comment="kpoint 27">
       <r>   -7.5029    1.0000 </r>
       <r>   -6.1229    1.0000 </r>
       <r>   -5.7623    1.0000 </r>
       <r>   -4.9069    1.0000 </r>
       <r>   -3.5793    1.0000 </r>
       <r>    0.5374    1.0000 </r>
       <r>    1.2431    1.0000 </r>
       <r>    1.6013    1.0000 </r>
       <r>    1.9533    1.0000 </r>
       <r>    2.1411    1.0000 </r>
       <r>    2.6178    1.0000 </r>
       <r>    3.5360    1.0000 </r>
       <r>    4.5075    1.0000 </r>
       <r>    4.7697    1.0000 </r>
       <r>    6.1980    0.0000 </r>
       <r>    6.6350    0.0000 </r>
       <r>    7.4334    0.0000 </r>
       <r>    8.3509    0.0000 </r>
       <r>    9.0264    0.0000 </r>
       <r>   11.8438    0.0000 </r>
      </set>
      <set comment="kpoint 28">
       <r>   -7.2614    1.0000 </r>
       <r>   -5.8394    1.0000 </r>
       <r>   -5.6498    1.0000 </r>
       <r>   -5.1646    1.0000 </r>
       <r>   -3.9201    1.0000 </r>
       <r>    0.6423    1.0000 </r>
       <r>    0.7425    1.0000 </r>
       <r>    1.3755    1.0000 </r>
       <r>    1.7115    1.0000 </r>
       <r>    1.8509    1.0000 </r>
       <r>    2.6161    1.0000 </r>
       <r>    3.7606    1.0000 </r>
       <r>    4.1892    1.0000 </r>
       <r>    4.3670    1.0000 </r>
       <r>    6.7332    0.0000 </r>
       <r>    6.9494    0.0000 </r>
       <r>    7.1946    0.0000 </r>
       <r>    8.5703    0.0000 </r>
       <r>    9.0918    0.0000 </r>
       <r>   10.4159    0.0000 </r>
      </set>
      <set comment="kpoint 29">
       <r>   -7.1553    1.0000 </r>
       <r>   -5.7187    1.0000 </r>
       <r>   -5.5686    1.0000 </r>
       <r>   -5.2966    1.0000 </r>
       <r>   -4.0804    1.0000 </r>
       <r>    0.4164    1.0000 </r>
       <r>    0.8530    1.0000 </r>
       <r>    1.1123    1.0000 </r>
       <r>    1.6819    1.0000 </r>
       <r>    2.1821    1.0000 </r>
       <r>    2.6039    1.0000 </r>
       <r>    3.3531    1.0000 </r>
       <r>    3.8427    1.0000 </r>
       <r>    4.4712    1.0000 </r>
       <r>    6.6965    0.0000 </r>
       <r>    7.4417    0.0000 </r>
       <r>    7.5097    0.0000 </r>
       <r>    8.5542    0.0000 </r>
       <r>    8.9969    0.0000 </r>
       <r>    9.1746    0.0000 </r>
      </set>
      <set comment="kpoint 30">
       <r>   -7.2625    1.0000 </r>
       <r>   -5.8289    1.0000 </r>
       <r>   -5.6576    1.0000 </r>
       <r>   -5.1638    1.0000 </r>
       <r>   -3.9229    1.0000 </r>
       <r>    0.5236    1.0000 </r>
       <r>    0.5958    1.0000 </r>
       <r>    1.6692    1.0000 </r>
       <r>    1.7707    1.0000 </r>
       <r>    2.3831    1.0000 </r>
       <r>    2.4572    1.0000 </r>
       <r>    3.2472    1.0000 </r>
       <r>    3.6443    1.0000 </r>
       <r>    4.7241    1.0000 </r>
       <r>    6.5099    0.0000 </r>
       <r>    7.5533    0.0000 </r>
       <r>    7.6623    0.0000 </r>
       <r>    8.5989    0.0000 </r>
       <r>    8.8193    0.0000 </r>
       <r>    8.9232    0.0000 </r>
      </set>
      <set comment="kpoint 31">
       <r>   -7.6345    1.0000 </r>
       <r>   -6.2588    1.0000 </r>
       <r>   -5.8603    1.0000 </r>
       <r>   -4.7741    1.0000 </r>
       <r>   -3.3881    1.0000 </r>
       <r>    0.3610    1.0000 </r>
       <r>    1.5123    1.0000 </r>
       <r>    2.0155    1.0000 </r>
       <r>    2.0927    1.0000 </r>
       <r>    2.7881    1.0000 </r>
       <r>    3.1933    1.0000 </r>
       <r>    3.5510    1.0000 </r>
       <r>    3.8602    1.0000 </r>
       <r>    3.9091    1.0000 </r>
       <r>    6.6165    0.0000 </r>
       <r>    7.1716    0.0000 </r>
       <r>    7.3798    0.0000 </r>
       <r>    7.8669    0.0000 </r>
       <r>    8.0796    0.0000 </r>
       <r>    8.7790    0.0000 </r>
      </set>
      <set comment="kpoint 32">
       <r>   -7.4550    1.0000 </r>
       <r>   -6.0398    1.0000 </r>
       <r>   -5.8180    1.0000 </r>
       <r>   -4.9593    1.0000 </r>
       <r>   -3.6178    1.0000 </r>
       <r>    0.3508    1.0000 </r>
       <r>    1.3755    1.0000 </r>
       <r>    1.6118    1.0000 </r>
       <r>    2.0157    1.0000 </r>
       <r>    2.1622    1.0000 </r>
       <r>    2.8195    1.0000 </r>
       <r>    3.6948    1.0000 </r>
       <r>    4.2261    1.0000 </r>
       <r>    4.4333    1.0000 </r>
       <r>    6.5172    0.0000 </r>
       <r>    6.5952    0.0000 </r>
       <r>    6.9934    0.0000 </r>
       <r>    8.1189    0.0000 </r>
       <r>    8.5459    0.0000 </r>
       <r>   11.4624    0.0000 </r>
      </set>
      <set comment="kpoint 33">
       <r>   -7.2727    1.0000 </r>
       <r>   -5.8271    1.0000 </r>
       <r>   -5.7168    1.0000 </r>
       <r>   -5.1534    1.0000 </r>
       <r>   -3.8843    1.0000 </r>
       <r>    0.5272    1.0000 </r>
       <r>    1.1528    1.0000 </r>
       <r>    1.3009    1.0000 </r>
       <r>    1.7175    1.0000 </r>
       <r>    1.8954    1.0000 </r>
       <r>    2.1671    1.0000 </r>
       <r>    4.0541    1.0000 </r>
       <r>    4.5685    1.0000 </r>
       <r>    4.7514    1.0000 </r>
       <r>    6.1423    0.0000 </r>
       <r>    6.5142    0.0000 </r>
       <r>    6.7900    0.0000 </r>
       <r>    8.5494    0.0000 </r>
       <r>    9.1108    0.0000 </r>
       <r>   11.7555    0.0000 </r>
      </set>
      <set comment="kpoint 34">
       <r>   -7.1553    1.0000 </r>
       <r>   -5.7084    1.0000 </r>
       <r>   -5.5797    1.0000 </r>
       <r>   -5.2966    1.0000 </r>
       <r>   -4.0836    1.0000 </r>
       <r>    0.6087    1.0000 </r>
       <r>    0.9906    1.0000 </r>
       <r>    1.1701    1.0000 </r>
       <r>    1.2619    1.0000 </r>
       <r>    2.0595    1.0000 </r>
       <r>    2.1556    1.0000 </r>
       <r>    3.9082    1.0000 </r>
       <r>    4.3069    1.0000 </r>
       <r>    4.6019    1.0000 </r>
       <r>    6.4030    0.0000 </r>
       <r>    6.8234    0.0000 </r>
       <r>    7.0833    0.0000 </r>
       <r>    8.9785    0.0000 </r>
       <r>    9.1095    0.0000 </r>
       <r>   12.6756    0.0000 </r>
      </set>
      <set comment="kpoint 35">
       <r>   -7.3802    1.0000 </r>
       <r>   -5.9412    1.0000 </r>
       <r>   -5.8282    1.0000 </r>
       <r>   -5.0641    1.0000 </r>
       <r>   -3.6842    1.0000 </r>
       <r>    0.3529    1.0000 </r>
       <r>    1.1057    1.0000 </r>
       <r>    1.5246    1.0000 </r>
       <r>    1.8711    1.0000 </r>
       <r>    2.6721    1.0000 </r>
       <r>    3.3551    1.0000 </r>
       <r>    3.4757    1.0000 </r>
       <r>    3.8264    1.0000 </r>
       <r>    4.1507    1.0000 </r>
       <r>    6.4782    0.0000 </r>
       <r>    6.6138    0.0000 </r>
       <r>    7.2332    0.0000 </r>
       <r>    7.9468    0.0000 </r>
       <r>    8.1820    0.0000 </r>
       <r>    8.6154    0.0000 </r>
      </set>
      <set comment="kpoint 36">
       <r>   -7.3119    1.0000 </r>
       <r>   -5.8830    1.0000 </r>
       <r>   -5.7631    1.0000 </r>
       <r>   -5.1411    1.0000 </r>
       <r>   -3.7846    1.0000 </r>
       <r>    0.4537    1.0000 </r>
       <r>    0.9974    1.0000 </r>
       <r>    1.4993    1.0000 </r>
       <r>    1.8630    1.0000 </r>
       <r>    2.0803    1.0000 </r>
       <r>    2.7409    1.0000 </r>
       <r>    3.9547    1.0000 </r>
       <r>    4.3671    1.0000 </r>
       <r>    4.3784    1.0000 </r>
       <r>    6.2937    0.0000 </r>
       <r>    6.5844    0.0000 </r>
       <r>    6.6710    0.0000 </r>
       <r>    8.1396    0.0000 </r>
       <r>    8.5659    0.0000 </r>
       <r>    8.9424    0.0000 </r>
      </set>
      <set comment="kpoint 37">
       <r>   -8.4864    1.0000 </r>
       <r>   -7.1504    1.0000 </r>
       <r>   -6.3106    1.0000 </r>
       <r>   -3.9818    1.0000 </r>
       <r>   -2.3072    1.0000 </r>
       <r>    2.8492    1.0000 </r>
       <r>    3.2351    1.0000 </r>
       <r>    3.2351    1.0000 </r>
       <r>    3.4438    1.0000 </r>
       <r>    3.5529    1.0000 </r>
       <r>    3.5529    1.0000 </r>
       <r>    4.3550    1.0000 </r>
       <r>    4.3550    1.0000 </r>
       <r>    5.1883    0.9982 </r>
       <r>    5.5872    0.0031 </r>
       <r>    6.0376    0.0000 </r>
       <r>    6.0376    0.0000 </r>
       <r>    7.1859    0.0000 </r>
       <r>    7.3778    0.0000 </r>
       <r>   11.1941    0.0000 </r>
      </set>
      <set comment="kpoint 38">
       <r>   -8.4227    1.0000 </r>
       <r>   -7.0983    1.0000 </r>
       <r>   -6.2484    1.0000 </r>
       <r>   -4.0514    1.0000 </r>
       <r>   -2.3594    1.0000 </r>
       <r>    2.3861    1.0000 </r>
       <r>    2.6679    1.0000 </r>
       <r>    3.0361    1.0000 </r>
       <r>    3.4985    1.0000 </r>
       <r>    3.5169    1.0000 </r>
       <r>    3.8796    1.0000 </r>
       <r>    4.1241    1.0000 </r>
       <r>    4.2460    1.0000 </r>
       <r>    4.7217    1.0000 </r>
       <r>    6.1355    0.0000 </r>
       <r>    6.4157    0.0000 </r>
       <r>    6.4886    0.0000 </r>
       <r>    7.0838    0.0000 </r>
       <r>    7.2734    0.0000 </r>
       <r>    7.5616    0.0000 </r>
      </set>
      <set comment="kpoint 39">
       <r>   -8.2402    1.0000 </r>
       <r>   -6.9245    1.0000 </r>
       <r>   -6.1060    1.0000 </r>
       <r>   -4.2298    1.0000 </r>
       <r>   -2.5607    1.0000 </r>
       <r>    1.7737    1.0000 </r>
       <r>    2.0040    1.0000 </r>
       <r>    2.6636    1.0000 </r>
       <r>    2.7302    1.0000 </r>
       <r>    3.1183    1.0000 </r>
       <r>    3.7348    1.0000 </r>
       <r>    4.2796    1.0000 </r>
       <r>    4.3087    1.0000 </r>
       <r>    4.7525    1.0000 </r>
       <r>    6.2785    0.0000 </r>
       <r>    6.6740    0.0000 </r>
       <r>    6.6896    0.0000 </r>
       <r>    7.3677    0.0000 </r>
       <r>    7.5198    0.0000 </r>
       <r>    8.2988    0.0000 </r>
      </set>
      <set comment="kpoint 40">
       <r>   -7.9599    1.0000 </r>
       <r>   -6.6488    1.0000 </r>
       <r>   -5.9153    1.0000 </r>
       <r>   -4.5197    1.0000 </r>
       <r>   -2.9202    1.0000 </r>
       <r>    1.2063    1.0000 </r>
       <r>    1.4522    1.0000 </r>
       <r>    2.1552    1.0000 </r>
       <r>    2.4469    1.0000 </r>
       <r>    2.6898    1.0000 </r>
       <r>    3.0765    1.0000 </r>
       <r>    4.3365    1.0000 </r>
       <r>    4.3640    1.0000 </r>
       <r>    4.8796    1.0000 </r>
       <r>    5.9653    0.0000 </r>
       <r>    6.6190    0.0000 </r>
       <r>    6.6704    0.0000 </r>
       <r>    7.8740    0.0000 </r>
       <r>    8.1282    0.0000 </r>
       <r>    9.1188    0.0000 </r>
      </set>
      <set comment="kpoint 41">
       <r>   -7.6330    1.0000 </r>
       <r>   -6.3140    1.0000 </r>
       <r>   -5.7549    1.0000 </r>
       <r>   -4.8491    1.0000 </r>
       <r>   -3.3710    1.0000 </r>
       <r>    0.5497    1.0000 </r>
       <r>    1.3800    1.0000 </r>
       <r>    2.0043    1.0000 </r>
       <r>    2.2223    1.0000 </r>
       <r>    2.3921    1.0000 </r>
       <r>    2.5439    1.0000 </r>
       <r>    3.9472    1.0000 </r>
       <r>    4.2922    1.0000 </r>
       <r>    4.8073    1.0000 </r>
       <r>    5.8561    0.0000 </r>
       <r>    6.5418    0.0000 </r>
       <r>    6.9532    0.0000 </r>
       <r>    8.0216    0.0000 </r>
       <r>    8.6152    0.0000 </r>
       <r>    8.9322    0.0000 </r>
      </set>
      <set comment="kpoint 42">
       <r>   -7.3791    1.0000 </r>
       <r>   -6.0051    1.0000 </r>
       <r>   -5.7638    1.0000 </r>
       <r>   -5.0429    1.0000 </r>
       <r>   -3.7190    1.0000 </r>
       <r>    0.1412    1.0000 </r>
       <r>    1.5996    1.0000 </r>
       <r>    1.9152    1.0000 </r>
       <r>    2.0661    1.0000 </r>
       <r>    2.2834    1.0000 </r>
       <r>    2.3102    1.0000 </r>
       <r>    3.3883    1.0000 </r>
       <r>    4.2260    1.0000 </r>
       <r>    4.7005    1.0000 </r>
       <r>    5.8520    0.0000 </r>
       <r>    6.5367    0.0000 </r>
       <r>    7.4294    0.0000 </r>
       <r>    8.0199    0.0000 </r>
       <r>    8.7716    0.0000 </r>
       <r>    8.8564    0.0000 </r>
      </set>
      <set comment="kpoint 43">
       <r>   -7.3803    1.0000 </r>
       <r>   -6.0081    1.0000 </r>
       <r>   -5.7412    1.0000 </r>
       <r>   -5.0745    1.0000 </r>
       <r>   -3.7009    1.0000 </r>
       <r>    0.0802    1.0000 </r>
       <r>    1.7037    1.0000 </r>
       <r>    1.9490    1.0000 </r>
       <r>    2.0245    1.0000 </r>
       <r>    2.3430    1.0000 </r>
       <r>    2.4401    1.0000 </r>
       <r>    3.1279    1.0000 </r>
       <r>    4.1783    1.0000 </r>
       <r>    4.5693    1.0000 </r>
       <r>    5.9669    0.0000 </r>
       <r>    6.6169    0.0000 </r>
       <r>    7.8080    0.0000 </r>
       <r>    7.9494    0.0000 </r>
       <r>    8.7862    0.0000 </r>
       <r>   10.4083    0.0000 </r>
      </set>
      <set comment="kpoint 44">
       <r>   -7.6371    1.0000 </r>
       <r>   -6.2596    1.0000 </r>
       <r>   -5.8296    1.0000 </r>
       <r>   -4.8278    1.0000 </r>
       <r>   -3.3609    1.0000 </r>
       <r>    0.3787    1.0000 </r>
       <r>    1.6865    1.0000 </r>
       <r>    1.9702    1.0000 </r>
       <r>    2.1190    1.0000 </r>
       <r>    2.5482    1.0000 </r>
       <r>    2.8249    1.0000 </r>
       <r>    3.4500    1.0000 </r>
       <r>    4.1623    1.0000 </r>
       <r>    4.4553    1.0000 </r>
       <r>    6.1760    0.0000 </r>
       <r>    6.7643    0.0000 </r>
       <r>    7.5601    0.0000 </r>
       <r>    7.9385    0.0000 </r>
       <r>    8.4107    0.0000 </r>
       <r>    9.0119    0.0000 </r>
      </set>
      <set comment="kpoint 45">
       <r>   -7.9652    1.0000 </r>
       <r>   -6.5868    1.0000 </r>
       <r>   -6.0111    1.0000 </r>
       <r>   -4.4569    1.0000 </r>
       <r>   -2.9460    1.0000 </r>
       <r>    0.9851    1.0000 </r>
       <r>    1.8331    1.0000 </r>
       <r>    2.0488    1.0000 </r>
       <r>    2.3418    1.0000 </r>
       <r>    2.8752    1.0000 </r>
       <r>    3.3888    1.0000 </r>
       <r>    3.9465    1.0000 </r>
       <r>    4.1696    1.0000 </r>
       <r>    4.4749    1.0000 </r>
       <r>    6.4027    0.0000 </r>
       <r>    6.9008    0.0000 </r>
       <r>    6.9391    0.0000 </r>
       <r>    7.7963    0.0000 </r>
       <r>    7.9002    0.0000 </r>
       <r>    9.0742    0.0000 </r>
      </set>
      <set comment="kpoint 46">
       <r>   -8.2447    1.0000 </r>
       <r>   -6.8795    1.0000 </r>
       <r>   -6.1760    1.0000 </r>
       <r>   -4.1674    1.0000 </r>
       <r>   -2.6028    1.0000 </r>
       <r>    1.7777    1.0000 </r>
       <r>    2.0721    1.0000 </r>
       <r>    2.5950    1.0000 </r>
       <r>    2.6659    1.0000 </r>
       <r>    3.2572    1.0000 </r>
       <r>    3.8608    1.0000 </r>
       <r>    4.0990    1.0000 </r>
       <r>    4.1955    1.0000 </r>
       <r>    4.7888    1.0000 </r>
       <r>    6.3730    0.0000 </r>
       <r>    6.5302    0.0000 </r>
       <r>    6.7426    0.0000 </r>
       <r>    7.3714    0.0000 </r>
       <r>    7.5337    0.0000 </r>
       <r>    9.4379    0.0000 </r>
      </set>
      <set comment="kpoint 47">
       <r>   -8.4210    1.0000 </r>
       <r>   -7.1125    1.0000 </r>
       <r>   -6.2265    1.0000 </r>
       <r>   -4.0710    1.0000 </r>
       <r>   -2.3492    1.0000 </r>
       <r>    2.4543    1.0000 </r>
       <r>    2.7267    1.0000 </r>
       <r>    3.0433    1.0000 </r>
       <r>    3.3583    1.0000 </r>
       <r>    3.4681    1.0000 </r>
       <r>    3.5301    1.0000 </r>
       <r>    4.3486    1.0000 </r>
       <r>    4.4504    1.0000 </r>
       <r>    4.9755    1.0000 </r>
       <r>    5.8610    0.0000 </r>
       <r>    6.1641    0.0000 </r>
       <r>    6.4171    0.0000 </r>
       <r>    7.1411    0.0000 </r>
       <r>    7.5448    0.0000 </r>
       <r>   10.6618    0.0000 </r>
      </set>
      <set comment="kpoint 48">
       <r>   -8.2977    1.0000 </r>
       <r>   -6.9999    1.0000 </r>
       <r>   -6.1240    1.0000 </r>
       <r>   -4.1872    1.0000 </r>
       <r>   -2.4897    1.0000 </r>
       <r>    1.9598    1.0000 </r>
       <r>    2.3205    1.0000 </r>
       <r>    2.5724    1.0000 </r>
       <r>    2.9530    1.0000 </r>
       <r>    3.3231    1.0000 </r>
       <r>    3.5660    1.0000 </r>
       <r>    4.1359    1.0000 </r>
       <r>    4.5553    1.0000 </r>
       <r>    4.9279    1.0000 </r>
       <r>    6.0000    0.0000 </r>
       <r>    6.3422    0.0000 </r>
       <r>    6.8202    0.0000 </r>
       <r>    7.3663    0.0000 </r>
       <r>    7.6079    0.0000 </r>
       <r>    8.1022    0.0000 </r>
      </set>
      <set comment="kpoint 49">
       <r>   -8.0656    1.0000 </r>
       <r>   -6.7716    1.0000 </r>
       <r>   -5.9608    1.0000 </r>
       <r>   -4.4108    1.0000 </r>
       <r>   -2.7848    1.0000 </r>
       <r>    1.4448    1.0000 </r>
       <r>    1.7004    1.0000 </r>
       <r>    2.1321    1.0000 </r>
       <r>    2.5584    1.0000 </r>
       <r>    2.6504    1.0000 </r>
       <r>    3.6328    1.0000 </r>
       <r>    4.1039    1.0000 </r>
       <r>    4.3741    1.0000 </r>
       <r>    4.8236    1.0000 </r>
       <r>    6.2676    0.0000 </r>
       <r>    6.5749    0.0000 </r>
       <r>    6.7863    0.0000 </r>
       <r>    7.4738    0.0000 </r>
       <r>    8.3351    0.0000 </r>
       <r>    9.5006    0.0000 </r>
      </set>
      <set comment="kpoint 50">
       <r>   -7.7579    1.0000 </r>
       <r>   -6.4556    1.0000 </r>
       <r>   -5.7882    1.0000 </r>
       <r>   -4.7185    1.0000 </r>
       <r>   -3.2047    1.0000 </r>
       <r>    0.9456    1.0000 </r>
       <r>    1.2682    1.0000 </r>
       <r>    1.7456    1.0000 </r>
       <r>    2.0874    1.0000 </r>
       <r>    2.5488    1.0000 </r>
       <r>    3.3209    1.0000 </r>
       <r>    3.8522    1.0000 </r>
       <r>    4.2478    1.0000 </r>
       <r>    4.6282    1.0000 </r>
       <r>    6.3441    0.0000 </r>
       <r>    6.6865    0.0000 </r>
       <r>    6.8519    0.0000 </r>
       <r>    7.8919    0.0000 </r>
       <r>    8.4728    0.0000 </r>
       <r>   10.5100    0.0000 </r>
      </set>
      <set comment="kpoint 51">
       <r>   -7.4533    1.0000 </r>
       <r>   -6.1099    1.0000 </r>
       <r>   -5.7180    1.0000 </r>
       <r>   -4.9894    1.0000 </r>
       <r>   -3.6264    1.0000 </r>
       <r>    0.3974    1.0000 </r>
       <r>    1.3506    1.0000 </r>
       <r>    1.5236    1.0000 </r>
       <r>    1.7951    1.0000 </r>
       <r>    2.6340    1.0000 </r>
       <r>    2.8675    1.0000 </r>
       <r>    3.7193    1.0000 </r>
       <r>    3.8284    1.0000 </r>
       <r>    4.4724    1.0000 </r>
       <r>    6.3805    0.0000 </r>
       <r>    6.8668    0.0000 </r>
       <r>    7.0215    0.0000 </r>
       <r>    8.1938    0.0000 </r>
       <r>    8.5008    0.0000 </r>
       <r>    9.0547    0.0000 </r>
      </set>
      <set comment="kpoint 52">
       <r>   -7.3115    1.0000 </r>
       <r>   -5.9121    1.0000 </r>
       <r>   -5.7440    1.0000 </r>
       <r>   -5.1134    1.0000 </r>
       <r>   -3.8060    1.0000 </r>
       <r>    0.1342    1.0000 </r>
       <r>    1.4305    1.0000 </r>
       <r>    1.6434    1.0000 </r>
       <r>    1.7937    1.0000 </r>
       <r>    2.3741    1.0000 </r>
       <r>    2.9098    1.0000 </r>
       <r>    3.3312    1.0000 </r>
       <r>    3.6811    1.0000 </r>
       <r>    4.4868    1.0000 </r>
       <r>    6.2921    0.0000 </r>
       <r>    6.9458    0.0000 </r>
       <r>    7.4992    0.0000 </r>
       <r>    8.1610    0.0000 </r>
       <r>    8.8561    0.0000 </r>
       <r>    9.2202    0.0000 </r>
      </set>
      <set comment="kpoint 53">
       <r>   -7.4566    1.0000 </r>
       <r>   -6.0680    1.0000 </r>
       <r>   -5.7566    1.0000 </r>
       <r>   -5.0027    1.0000 </r>
       <r>   -3.6073    1.0000 </r>
       <r>    0.2202    1.0000 </r>
       <r>    1.5585    1.0000 </r>
       <r>    1.7677    1.0000 </r>
       <r>    2.0740    1.0000 </r>
       <r>    2.1451    1.0000 </r>
       <r>    3.0964    1.0000 </r>
       <r>    3.1585    1.0000 </r>
       <r>    3.8375    1.0000 </r>
       <r>    4.5560    1.0000 </r>
       <r>    6.2517    0.0000 </r>
       <r>    6.9406    0.0000 </r>
       <r>    7.7917    0.0000 </r>
       <r>    8.0122    0.0000 </r>
       <r>    8.5445    0.0000 </r>
       <r>    9.0376    0.0000 </r>
      </set>
      <set comment="kpoint 54">
       <r>   -7.7643    1.0000 </r>
       <r>   -6.3732    1.0000 </r>
       <r>   -5.9108    1.0000 </r>
       <r>   -4.6589    1.0000 </r>
       <r>   -3.2165    1.0000 </r>
       <r>    0.6539    1.0000 </r>
[...]
        <r>  0.1172  0.0000  0.0007  0.0000  0.0000  0.0000  0.0000  0.0000  0.0000 </r>
        <r>  0.2615  0.0000  0.0039  0.0000  0.0000  0.0000  0.0000  0.0000  0.0000 </r>
        <r>  0.0211  0.0000  0.0005  0.0000  0.0000  0.0000  0.0000  0.0000  0.0000 </r>
       </set>
       <set comment="band 3">
        <r>  0.0086  0.0000  0.0098  0.0000  0.0000  0.0000  0.0000  0.0000  0.0000 </r>
        <r>  0.0397  0.0000  0.0198  0.0000  0.0000  0.0000  0.0001  0.0000  0.0000 </r>
        <r>  0.2871  0.0000  0.0010  0.0000  0.0000  0.0000  0.0000  0.0000  0.0000 </r>
        <r>  0.1730  0.0000  0.0018  0.0000  0.0000  0.0000  0.0000  0.0000  0.0000 </r>
        <r>  0.1420  0.0000  0.0001  0.0000  0.0000  0.0000  0.0000  0.0000  0.0000 </r>
       </set>
       <set comment="band 4">
        <r>  0.0750  0.0000  0.0048  0.0000  0.0000  0.0000  0.0000  0.0000  0.0000 </r>
        <r>  0.3848  0.0000  0.0014  0.0000  0.0000  0.0000  0.0002  0.0000  0.0000 </r>
        <r>  0.0689  0.0000  0.0157  0.0000  0.0000  0.0000  0.0000  0.0000  0.0000 </r>
        <r>  0.0641  0.0000  0.0041  0.0000  0.0000  0.0000  0.0000  0.0000  0.0000 </r>
        <r>  0.1289  0.0000  0.0096  0.0000  0.0000  0.0000  0.0000  0.0000  0.0000 </r>
       </set>
       <set comment="band 5">
        <r>  0.2986  0.0000  0.0001  0.0000  0.0000  0.0000  0.0001  0.0000  0.0000 </r>
        <r>  0.1031  0.0000  0.0028  0.0000  0.0000  0.0000  0.0000  0.0000  0.0000 </r>
        <r>  0.1483  0.0000  0.0053  0.0000  0.0000  0.0000  0.0001  0.0000  0.0000 </r>
        <r>  0.1568  0.0000  0.0152  0.0000  0.0000  0.0000  0.0000  0.0000  0.0000 </r>
        <r>  0.0447  0.0000  0.0003  0.0000  0.0000  0.0000  0.0000  0.0000  0.0000 </r>
       </set>
       <set comment="band 6">
        <r>  0.0004  0.0000  0.0598  0.0000  0.0000  0.0000  0.0001  0.0000  0.0000 </r>
        <r>  0.0008  0.0000  0.0590  0.0000  0.0000  0.0000  0.0010  0.0000  0.0000 </r>
        <r>  0.0008  0.0000  0.1116  0.0000  0.0000  0.0000  0.0000  0.0000  0.0000 </r>
        <r>  0.0001  0.0000  0.1212  0.0000  0.0000  0.0000  0.0002  0.0000  0.0000 </r>
        <r>  0.0004  0.0000  0.1389  0.0000  0.0000  0.0000  0.0001  0.0000  0.0000 </r>
       </set>
       <set comment="band 7">
        <r>  0.0000  0.0166  0.0000  0.0001  0.0001  0.0001  0.0000  0.0000  0.0000 </r>
        <r>  0.0000  0.1621  0.0000  0.0010  0.0073  0.0032  0.0000  0.0000  0.0000 </r>
        <r>  0.0000  0.0265  0.0000  0.0002  0.0002  0.0000  0.0000  0.0000  0.0000 </r>
        <r>  0.0000  0.0373  0.0000  0.0002  0.0000  0.0000  0.0000  0.0000  0.0000 </r>
        <r>  0.0000  0.3515  0.0000  0.0021  0.0010  0.0012  0.0000  0.0000  0.0000 </r>
       </set>
       <set comment="band 8">
        <r>  0.0000  0.0001  0.0000  0.0166  0.0000  0.0000  0.0000  0.0001  0.0001 </r>
        <r>  0.0000  0.0010  0.0000  0.1621  0.0000  0.0000  0.0000  0.0032  0.0073 </r>
        <r>  0.0000  0.0002  0.0000  0.0265  0.0000  0.0000  0.0000  0.0000  0.0002 </r>
        <r>  0.0000  0.0002  0.0000  0.0373  0.0000  0.0000  0.0000  0.0000  0.0000 </r>
        <r>  0.0000  0.0021  0.0000  0.3515  0.0000  0.0000  0.0000  0.0012  0.0010 </r>
       </set>
       <set comment="band 9">
        <r>  0.0000  0.0997  0.0000  0.0606  0.0010  0.0007  0.0000  0.0004  0.0006 </r>
        <r>  0.0000  0.0129  0.0000  0.0078  0.0023  0.0011  0.0000  0.0007  0.0014 </r>
        <r>  0.0000  0.0187  0.0000  0.0114  0.0008  0.0002  0.0000  0.0002  0.0005 </r>
        <r>  0.0000  0.1457  0.0000  0.0886  0.0018  0.0018  0.0000  0.0011  0.0011 </r>
        <r>  0.0000  0.0376  0.0000  0.0229  0.0003  0.0003  0.0000  0.0002  0.0002 </r>
       </set>
       <set comment="band 10">
        <r>  0.0000  0.0606  0.0000  0.0997  0.0006  0.0004  0.0000  0.0007  0.0010 </r>
        <r>  0.0000  0.0078  0.0000  0.0129  0.0014  0.0007  0.0000  0.0011  0.0023 </r>
        <r>  0.0000  0.0114  0.0000  0.0187  0.0005  0.0002  0.0000  0.0002  0.0008 </r>
        <r>  0.0000  0.0886  0.0000  0.1457  0.0011  0.0011  0.0000  0.0018  0.0018 </r>
        <r>  0.0000  0.0229  0.0000  0.0376  0.0002  0.0002  0.0000  0.0003  0.0003 </r>
       </set>
       <set comment="band 11">
        <r>  0.0715  0.0000  0.0231  0.0000  0.0000  0.0000  0.0015  0.0000  0.0000 </r>
        <r>  0.0585  0.0000  0.0526  0.0000  0.0000  0.0000  0.0085  0.0000  0.0000 </r>
        <r>  0.0013  0.0000  0.1404  0.0000  0.0000  0.0000  0.0000  0.0000  0.0000 </r>
        <r>  0.0380  0.0000  0.0316  0.0000  0.0000  0.0000  0.0008  0.0000  0.0000 </r>
        <r>  0.0163  0.0000  0.1151  0.0000  0.0000  0.0000  0.0015  0.0000  0.0000 </r>
       </set>
       <set comment="band 12">
        <r>  0.0000  0.0033  0.0000  0.0000  0.0054  0.0026  0.0000  0.0000  0.0001 </r>
        <r>  0.0000  0.0380  0.0000  0.0006  0.0096  0.0047  0.0000  0.0001  0.0001 </r>
        <r>  0.0000  0.3391  0.0000  0.0051  0.0001  0.0000  0.0000  0.0000  0.0000 </r>
        <r>  0.0000  0.0908  0.0000  0.0014  0.0001  0.0002  0.0000  0.0000  0.0000 </r>
        <r>  0.0000  0.0277  0.0000  0.0004  0.0006  0.0000  0.0000  0.0000  0.0000 </r>
       </set>
       <set comment="band 13">
        <r>  0.0000  0.0000  0.0000  0.0033  0.0001  0.0000  0.0000  0.0026  0.0054 </r>
        <r>  0.0000  0.0006  0.0000  0.0380  0.0001  0.0001  0.0000  0.0047  0.0096 </r>
        <r>  0.0000  0.0051  0.0000  0.3391  0.0000  0.0000  0.0000  0.0000  0.0001 </r>
        <r>  0.0000  0.0014  0.0000  0.0908  0.0000  0.0000  0.0000  0.0002  0.0001 </r>
        <r>  0.0000  0.0004  0.0000  0.0277  0.0000  0.0000  0.0000  0.0000  0.0006 </r>
       </set>
       <set comment="band 14">
        <r>  0.0259  0.0000  0.0683  0.0000  0.0000  0.0000  0.0014  0.0000  0.0000 </r>
        <r>  0.0122  0.0000  0.1377  0.0000  0.0000  0.0000  0.0036  0.0000  0.0000 </r>
        <r>  0.0517  0.0000  0.0030  0.0000  0.0000  0.0000  0.0025  0.0000  0.0000 </r>
        <r>  0.0122  0.0000  0.1277  0.0000  0.0000  0.0000  0.0002  0.0000  0.0000 </r>
        <r>  0.0188  0.0000  0.1526  0.0000  0.0000  0.0000  0.0005  0.0000  0.0000 </r>
       </set>
       <set comment="band 15">
        <r>  0.0256  0.0000  0.0823  0.0000  0.0000  0.0000  0.0037  0.0000  0.0000 </r>
        <r>  0.0080  0.0000  0.1144  0.0000  0.0000  0.0000  0.0031  0.0000  0.0000 </r>
        <r>  0.0392  0.0000  0.0005  0.0000  0.0000  0.0000  0.0013  0.0000  0.0000 </r>
        <r>  0.0129  0.0000  0.1367  0.0000  0.0000  0.0000  0.0079  0.0000  0.0000 </r>
        <r>  0.0026  0.0000  0.0798  0.0000  0.0000  0.0000  0.0041  0.0000  0.0000 </r>
       </set>
       <set comment="band 16">
        <r>  0.0000  0.0555  0.0000  0.1191  0.0010  0.0003  0.0000  0.0006  0.0022 </r>
        <r>  0.0000  0.0436  0.0000  0.0937  0.0022  0.0013  0.0000  0.0028  0.0048 </r>
        <r>  0.0000  0.0028  0.0000  0.0061  0.0023  0.0021  0.0000  0.0045  0.0048 </r>
        <r>  0.0000  0.0424  0.0000  0.0911  0.0016  0.0001  0.0000  0.0002  0.0034 </r>
        <r>  0.0000  0.0166  0.0000  0.0356  0.0005  0.0000  0.0000  0.0001  0.0011 </r>
       </set>
       <set comment="band 17">
        <r>  0.0000  0.1189  0.0000  0.0543  0.0022  0.0006  0.0000  0.0003  0.0010 </r>
        <r>  0.0000  0.0939  0.0000  0.0457  0.0048  0.0028  0.0000  0.0013  0.0022 </r>
        <r>  0.0000  0.0061  0.0000  0.0025  0.0048  0.0045  0.0000  0.0021  0.0023 </r>
        <r>  0.0000  0.0910  0.0000  0.0419  0.0034  0.0002  0.0000  0.0001  0.0015 </r>
        <r>  0.0000  0.0357  0.0000  0.0171  0.0011  0.0001  0.0000  0.0000  0.0005 </r>
       </set>
       <set comment="band 18">
        <r>  0.0000  0.0764  0.0000  0.0012  0.0002  0.0012  0.0000  0.0000  0.0000 </r>
        <r>  0.0000  0.3246  0.0000  0.0050  0.0002  0.0004  0.0000  0.0000  0.0000 </r>
        <r>  0.0000  0.1032  0.0000  0.0016  0.0008  0.0005  0.0000  0.0000  0.0000 </r>
        <r>  0.0000  0.0221  0.0000  0.0003  0.0050  0.0030  0.0000  0.0000  0.0001 </r>
        <r>  0.0000  0.0502  0.0000  0.0008  0.0087  0.0032  0.0000  0.0000  0.0001 </r>
       </set>
       <set comment="band 19">
        <r>  0.0059  0.0008  0.0378  0.0509  0.0000  0.0000  0.0001  0.0008  0.0002 </r>
        <r>  0.0060  0.0033  0.0594  0.2161  0.0000  0.0000  0.0003  0.0003  0.0002 </r>
        <r>  0.0000  0.0011  0.0577  0.0687  0.0000  0.0000  0.0000  0.0003  0.0005 </r>
        <r>  0.0077  0.0002  0.0003  0.0147  0.0001  0.0000  0.0008  0.0020  0.0033 </r>
        <r>  0.0061  0.0005  0.0003  0.0334  0.0001  0.0000  0.0009  0.0021  0.0058 </r>
       </set>
       <set comment="band 20">
        <r>  0.0008  0.0001  0.0002  0.0002  0.0100  0.0073  0.0145  0.0097  0.0140 </r>
        <r>  0.0019  0.0001  0.0003  0.0002  0.0106  0.0079  0.0140  0.0104  0.0146 </r>
        <r>  0.0030  0.0000  0.0039  0.0000  0.0134  0.0031  0.0177  0.0046  0.0185 </r>
        <r>  0.0014  0.0012  0.0049  0.0018  0.0092  0.0033  0.0113  0.0045  0.0117 </r>
        <r>  0.0025  0.0002  0.0028  0.0003  0.0031  0.0011  0.0028  0.0013  0.0041 </r>
       </set>
      </set>
      <set comment="kpoint 146">
       <set comment="band 1">
        <r>  0.0002  0.0000  0.0002  0.0000  0.0000  0.0000  0.0000  0.0000  0.0000 </r>
        <r>  0.2831  0.0000  0.0038  0.0012  0.0000  0.0000  0.0001  0.0000  0.0000 </r>
        <r>  0.0284  0.0000  0.0011  0.0001  0.0000  0.0000  0.0000  0.0000  0.0000 </r>
        <r>  0.0038  0.0000  0.0002  0.0000  0.0000  0.0000  0.0000  0.0000  0.0000 </r>
        <r>  0.3961  0.0000  0.0034  0.0002  0.0000  0.0000  0.0000  0.0000  0.0000 </r>
       </set>
       <set comment="band 2">
        <r>  0.1557  0.0000  0.0009  0.0006  0.0000  0.0000  0.0000  0.0000  0.0000 </r>
        <r>  0.0133  0.0000  0.0038  0.0000  0.0000  0.0000  0.0000  0.0000  0.0000 </r>
        <r>  0.1196  0.0000  0.0007  0.0002  0.0000  0.0000  0.0000  0.0000  0.0000 </r>
        <r>  0.2627  0.0000  0.0037  0.0003  0.0000  0.0000  0.0000  0.0000  0.0000 </r>
        <r>  0.0205  0.0000  0.0005  0.0000  0.0000  0.0000  0.0000  0.0000  0.0000 </r>
       </set>
       <set comment="band 3">
        <r>  0.0086  0.0000  0.0093  0.0000  0.0000  0.0000  0.0000  0.0000  0.0000 </r>
        <r>  0.0426  0.0000  0.0185  0.0000  0.0000  0.0000  0.0000  0.0002  0.0001 </r>
        <r>  0.2850  0.0000  0.0010  0.0001  0.0000  0.0000  0.0000  0.0000  0.0000 </r>
        <r>  0.1758  0.0000  0.0018  0.0001  0.0000  0.0000  0.0000  0.0000  0.0000 </r>
        <r>  0.1429  0.0000  0.0000  0.0000  0.0000  0.0000  0.0000  0.0000  0.0000 </r>
       </set>
       <set comment="band 4">
        <r>  0.0716  0.0000  0.0045  0.0000  0.0000  0.0000  0.0000  0.0000  0.0000 </r>
        <r>  0.3958  0.0000  0.0010  0.0003  0.0000  0.0000  0.0002  0.0000  0.0000 </r>
        <r>  0.0750  0.0000  0.0143  0.0000  0.0000  0.0000  0.0000  0.0001  0.0000 </r>
        <r>  0.0615  0.0000  0.0036  0.0000  0.0000  0.0000  0.0000  0.0000  0.0000 </r>
        <r>  0.1265  0.0000  0.0089  0.0006  0.0000  0.0000  0.0000  0.0001  0.0000 </r>
       </set>
       <set comment="band 5">
        <r>  0.3062  0.0000  0.0001  0.0005  0.0000  0.0000  0.0001  0.0000  0.0000 </r>
        <r>  0.0931  0.0000  0.0027  0.0016  0.0000  0.0000  0.0000  0.0000  0.0000 </r>
        <r>  0.1431  0.0000  0.0053  0.0010  0.0000  0.0000  0.0001  0.0000  0.0000 </r>
        <r>  0.1568  0.0000  0.0136  0.0014  0.0000  0.0000  0.0000  0.0001  0.0000 </r>
        <r>  0.0388  0.0000  0.0001  0.0012  0.0000  0.0000  0.0000  0.0000  0.0000 </r>
       </set>
       <set comment="band 6">
        <r>  0.0174  0.0000  0.0114  0.0311  0.0000  0.0000  0.0006  0.0002  0.0005 </r>
        <r>  0.0068  0.0000  0.0010  0.0659  0.0000  0.0000  0.0030  0.0013  0.0044 </r>
        <r>  0.0023  0.0000  0.0086  0.0171  0.0000  0.0000  0.0001  0.0001  0.0007 </r>
        <r>  0.0069  0.0000  0.0873  0.0327  0.0000  0.0000  0.0001  0.0004  0.0005 </r>
        <r>  0.0036  0.0000  0.1119  0.0872  0.0000  0.0000  0.0002  0.0004  0.0005 </r>
       </set>
       <set comment="band 7">
        <r>  0.0064  0.0000  0.0586  0.0189  0.0000  0.0000  0.0001  0.0001  0.0003 </r>
        <r>  0.0054  0.0000  0.0833  0.0205  0.0000  0.0000  0.0002  0.0000  0.0002 </r>
        <r>  0.0001  0.0000  0.1518  0.0021  0.0000  0.0000  0.0000  0.0000  0.0001 </r>
        <r>  0.0044  0.0000  0.0492  0.0305  0.0000  0.0000  0.0004  0.0004  0.0007 </r>
        <r>  0.0009  0.0000  0.0534  0.0311  0.0000  0.0000  0.0003  0.0003  0.0004 </r>
       </set>
       <set comment="band 8">
        <r>  0.0000  0.0021  0.0000  0.0000  0.0001  0.0002  0.0000  0.0000  0.0000 </r>
        <r>  0.0000  0.1897  0.0000  0.0000  0.0086  0.0036  0.0000  0.0000  0.0000 </r>
        <r>  0.0000  0.0262  0.0000  0.0000  0.0003  0.0002  0.0000  0.0000  0.0000 </r>
        <r>  0.0000  0.0152  0.0000  0.0000  0.0000  0.0000  0.0000  0.0000  0.0000 </r>
        <r>  0.0000  0.3652  0.0000  0.0000  0.0012  0.0015  0.0000  0.0000  0.0000 </r>
       </set>
       <set comment="band 9">
        <r>  0.0004  0.0000  0.0106  0.0664  0.0000  0.0000  0.0004  0.0007  0.0012 </r>
        <r>  0.0039  0.0000  0.0091  0.0706  0.0000  0.0000  0.0001  0.0026  0.0050 </r>
        <r>  0.0077  0.0000  0.0073  0.0075  0.0000  0.0000  0.0000  0.0002  0.0000 </r>
        <r>  0.0013  0.0000  0.0104  0.1401  0.0000  0.0000  0.0006  0.0010  0.0006 </r>
        <r>  0.0013  0.0000  0.0010  0.2029  0.0000  0.0000  0.0002  0.0006  0.0003 </r>
       </set>
       <set comment="band 10">
        <r>  0.0000  0.1617  0.0000  0.0000  0.0021  0.0009  0.0000  0.0000  0.0000 </r>
        <r>  0.0000  0.0100  0.0000  0.0000  0.0014  0.0008  0.0000  0.0000  0.0000 </r>
        <r>  0.0000  0.0781  0.0000  0.0000  0.0009  0.0003  0.0000  0.0000  0.0000 </r>
        <r>  0.0000  0.2278  0.0000  0.0000  0.0024  0.0025  0.0000  0.0000  0.0000 </r>
        <r>  0.0000  0.0048  0.0000  0.0000  0.0002  0.0002  0.0000  0.0000  0.0000 </r>
       </set>
       <set comment="band 11">
        <r>  0.0081  0.0000  0.0271  0.0197  0.0000  0.0000  0.0004  0.0009  0.0017 </r>
        <r>  0.0074  0.0000  0.0544  0.0380  0.0000  0.0000  0.0023  0.0020  0.0037 </r>
        <r>  0.0129  0.0000  0.0128  0.2314  0.0000  0.0000  0.0013  0.0000  0.0000 </r>
        <r>  0.0147  0.0000  0.0155  0.0117  0.0000  0.0000  0.0003  0.0000  0.0003 </r>
        <r>  0.0086  0.0000  0.0492  0.0049  0.0000  0.0000  0.0003  0.0000  0.0003 </r>
       </set>
       <set comment="band 12">
        <r>  0.0000  0.0089  0.0000  0.0000  0.0042  0.0036  0.0000  0.0000  0.0000 </r>
        <r>  0.0000  0.0186  0.0000  0.0000  0.0093  0.0074  0.0000  0.0000  0.0000 </r>
        <r>  0.0000  0.3025  0.0000  0.0000  0.0000  0.0000  0.0000  0.0000  0.0000 </r>
        <r>  0.0000  0.1188  0.0000  0.0000  0.0003  0.0007  0.0000  0.0000  0.0000 </r>
        <r>  0.0000  0.0701  0.0000  0.0000  0.0003  0.0002  0.0000  0.0000  0.0000 </r>
       </set>
       <set comment="band 13">
        <r>  0.0228  0.0000  0.0027  0.0174  0.0000  0.0000  0.0002  0.0018  0.0023 </r>
        <r>  0.0516  0.0000  0.0159  0.0006  0.0000  0.0000  0.0061  0.0026  0.0025 </r>
        <r>  0.0035  0.0000  0.0839  0.0233  0.0000  0.0000  0.0001  0.0001  0.0001 </r>
        <r>  0.0082  0.0000  0.0003  0.1078  0.0000  0.0000  0.0000  0.0013  0.0007 </r>
        <r>  0.0028  0.0000  0.1052  0.1124  0.0000  0.0000  0.0008  0.0002  0.0000 </r>
       </set>
       <set comment="band 14">
        <r>  0.0570  0.0000  0.0194  0.0105  0.0000  0.0000  0.0017  0.0003  0.0001 </r>
        <r>  0.0060  0.0000  0.0320  0.0282  0.0000  0.0000  0.0010  0.0027  0.0043 </r>
        <r>  0.0106  0.0000  0.0136  0.0914  0.0000  0.0000  0.0003  0.0006  0.0009 </r>
        <r>  0.0048  0.0000  0.1576  0.0314  0.0000  0.0000  0.0001  0.0001  0.0001 </r>
        <r>  0.0098  0.0000  0.1024  0.0040  0.0000  0.0000  0.0001  0.0006  0.0003 </r>
       </set>
       <set comment="band 15">
        <r>  0.0094  0.0000  0.0210  0.1019  0.0000  0.0000  0.0009  0.0005  0.0020 </r>
        <r>  0.0041  0.0000  0.1307  0.0719  0.0000  0.0000  0.0009  0.0006  0.0015 </r>
        <r>  0.0112  0.0000  0.0095  0.0062  0.0000  0.0000  0.0003  0.0039  0.0046 </r>
        <r>  0.0119  0.0000  0.0470  0.0400  0.0000  0.0000  0.0016  0.0003  0.0024 </r>
        <r>  0.0174  0.0000  0.0312  0.0019  0.0000  0.0000  0.0020  0.0000  0.0004 </r>
       </set>
       <set comment="band 16">
        <r>  0.0048  0.0000  0.1233  0.0208  0.0000  0.0000  0.0008  0.0004  0.0009 </r>
        <r>  0.0004  0.0000  0.0790  0.0981  0.0000  0.0000  0.0001  0.0015  0.0037 </r>
        <r>  0.0460  0.0000  0.0008  0.0241  0.0000  0.0000  0.0012  0.0014  0.0012 </r>
        <r>  0.0213  0.0000  0.0171  0.0588  0.0000  0.0000  0.0041  0.0004  0.0011 </r>
        <r>  0.0032  0.0000  0.0006  0.0417  0.0000  0.0000  0.0012  0.0008  0.0028 </r>
       </set>
       <set comment="band 17">
        <r>  0.0000  0.1694  0.0000  0.0000  0.0022  0.0009  0.0000  0.0000  0.0000 </r>
        <r>  0.0000  0.1810  0.0000  0.0000  0.0041  0.0032  0.0000  0.0000  0.0000 </r>
        <r>  0.0000  0.0054  0.0000  0.0000  0.0058  0.0069  0.0000  0.0000  0.0000 </r>
        <r>  0.0000  0.1131  0.0000  0.0000  0.0046  0.0014  0.0000  0.0000  0.0000 </r>
        <r>  0.0000  0.0444  0.0000  0.0000  0.0027  0.0013  0.0000  0.0000  0.0000 </r>
       </set>
       <set comment="band 18">
        <r>  0.0071  0.0000  0.0167  0.1054  0.0000  0.0000  0.0014  0.0005  0.0000 </r>
        <r>  0.0040  0.0000  0.0682  0.1182  0.0000  0.0000  0.0011  0.0006  0.0000 </r>
        <r>  0.0000  0.0000  0.0401  0.0761  0.0000  0.0000  0.0004  0.0002  0.0000 </r>
        <r>  0.0048  0.0000  0.0378  0.0211  0.0000  0.0000  0.0019  0.0018  0.0049 </r>
        <r>  0.0070  0.0000  0.0352  0.0049  0.0000  0.0000  0.0025  0.0011  0.0028 </r>
       </set>
       <set comment="band 19">
        <r>  0.0000  0.0924  0.0000  0.0000  0.0012  0.0008  0.0000  0.0000  0.0000 </r>
        <r>  0.0000  0.2922  0.0000  0.0000  0.0025  0.0007  0.0000  0.0000  0.0000 </r>
        <r>  0.0000  0.1017  0.0000  0.0000  0.0017  0.0007  0.0000  0.0000  0.0000 </r>
        <r>  0.0000  0.0458  0.0000  0.0000  0.0046  0.0021  0.0000  0.0000  0.0000 </r>
        <r>  0.0000  0.0627  0.0000  0.0000  0.0073  0.0023  0.0000  0.0000  0.0000 </r>
       </set>
       <set comment="band 20">
        <r>  0.0051  0.0000  0.0651  0.0336  0.0000  0.0000  0.0001  0.0001  0.0007 </r>
        <r>  0.0062  0.0000  0.0794  0.1637  0.0000  0.0000  0.0006  0.0001  0.0014 </r>
        <r>  0.0001  0.0000  0.1134  0.0255  0.0000  0.0000  0.0001  0.0004  0.0010 </r>
        <r>  0.0054  0.0000  0.0045  0.0387  0.0000  0.0000  0.0024  0.0001  0.0018 </r>
        <r>  0.0022  0.0000  0.0039  0.0526  0.0000  0.0000  0.0013  0.0006  0.0046 </r>
       </set>
      </set>
     </set>
    </set>
   </array>
  </projected>
 </calculation>
 <structure name="finalpos" >
  <crystal>
   <varray name="basis" >
    <v>       2.49437122      -0.00000000      10.02974072 </v>
    <v>      -1.24718561       2.16018885      10.02974072 </v>
    <v>      -1.24718561      -2.16018885      10.02974072 </v>
   </varray>
   <i name="volume">    162.13014397 </i>
   <varray name="rec_basis" >
    <v>       0.26726842       0.00000000       0.03323449 </v>
    <v>      -0.13363421       0.23146125       0.03323449 </v>
    <v>      -0.13363421      -0.23146125       0.03323449 </v>
   </varray>
  </crystal>
  <varray name="positions" >
   <v>       0.40086578       0.40086578       0.40086578 </v>
   <v>       0.59660763       0.59660763       0.59660763 </v>
   <v>       0.99905527       0.99905527       0.99905527 </v>
   <v>       0.79095093       0.79095093       0.79095093 </v>
   <v>       0.21252039       0.21252039       0.21252039 </v>
  </varray>
 </structure>
</modeling>
