 vasp.5.4.4.18Apr17-6-g9f103f2a35 (build May 14 2019 14:37:47) complex          
  
 executed on             LinuxIFC date 2021.11.29  22:35:47
 running on   48 total cores
 distrk:  each k-point on   48 cores,    1 groups
 distr:  one band on NCORES_PER_BAND=   1 cores,   48 groups


--------------------------------------------------------------------------------------------------------


 INCAR:
 POTCAR:    PAW_PBE Ga_d 06Jul2010                
 POTCAR:    PAW_PBE Zn 06Sep2000                  
 POTCAR:    PAW_PBE Se 06Sep2000                  

 ----------------------------------------------------------------------------- 
|                                                                             |
|           W    W    AA    RRRRR   N    N  II  N    N   GGGG   !!!           |
|           W    W   A  A   R    R  NN   N  II  NN   N  G    G  !!!           |
|           W    W  A    A  R    R  N N  N  II  N N  N  G       !!!           |
|           W WW W  AAAAAA  RRRRR   N  N N  II  N  N N  G  GGG   !            |
|           WW  WW  A    A  R   R   N   NN  II  N   NN  G    G                |
|           W    W  A    A  R    R  N    N  II  N    N   GGGG   !!!           |
|                                                                             |
|      For optimal performance we recommend to set                            |
|        NCORE= 4 - approx SQRT( number of cores)                             |
|      NCORE specifies how many cores store one orbital (NPAR=cpu/NCORE).     |
|      This setting can  greatly improve the performance of VASP for DFT.     |
|      The default,   NCORE=1            might be grossly inefficient         |
|      on modern multi-core architectures or massively parallel machines.     |
|      Do your own testing !!!!                                               |
|      Unfortunately you need to use the default for GW and RPA calculations. |
|      (for HF NCORE is supported but not extensively tested yet)             |
|                                                                             |
 ----------------------------------------------------------------------------- 

 POTCAR:    PAW_PBE Ga_d 06Jul2010                
   VRHFIN =Ga: s2p1                                                             
   LEXCH  = PE                                                                  
   EATOM  =  2148.8298 eV,  157.9345 Ry                                         
                                                                                
   TITEL  = PAW_PBE Ga_d 06Jul2010                                              
   LULTRA =        F    use ultrasoft PP ?                                      
   IUNSCR =        1    unscreen: 0-lin 1-nonlin 2-no                           
   RPACOR =    1.700    partial core radius                                     
   POMASS =   69.723; ZVAL   =   13.000    mass and valenz                      
   RCORE  =    2.300    outmost cutoff radius                                   
   RWIGS  =    2.300; RWIGS  =    1.217    wigner-seitz radius (au A)           
   ENMAX  =  282.691; ENMIN  =  212.018 eV                                      
   ICORE  =        3    local potential                                         
   LCOR   =        T    correct aug charges                                     
   LPAW   =        T    paw PP                                                  
   EAUG   =  490.690                                                            
   DEXC   =    0.000                                                            
   RMAX   =    2.341    core radius for proj-oper                               
   RAUG   =    1.300    factor for augmentation sphere                          
   RDEP   =    2.413    radius for radial grids                                 
   RDEPT  =    1.856    core radius for aug-charge                              
                                                                                
   Atomic configuration                                                         
    9 entries                                                                   
     n  l   j            E        occ.                                          
     1  0  0.50    -10228.7831   2.0000                                         
     2  0  0.50     -1262.1604   2.0000                                         
     2  1  1.50     -1098.6333   6.0000                                         
     3  0  0.50      -148.1110   2.0000                                         
     3  1  1.50       -98.8436   6.0000                                         
     3  2  2.50       -19.1549  10.0000                                         
     4  0  0.50        -8.9483   2.0000                                         
     4  1  0.50        -2.5791   1.0000                                         
     4  3  2.50        -2.7416   0.0000                                         
   Description                                                                  
     l       E           TYP  RCUT    TYP  RCUT                                 
     2    -19.1549037     23  2.300                                             
     2     -5.4423304     23  2.300                                             
     0     -8.9483111     23  2.300                                             
     0     68.0291300     23  2.300                                             
     1     -2.5790802     23  2.100                                             
     1     81.6349560     23  2.300                                             
     3      6.8029130     23  2.300                                             
  local pseudopotential read in
  partial core-charges read in
  partial kinetic energy density read in
  atomic valenz-charges read in
  non local Contribution for L=           2  read in
    real space projection operators read in
  non local Contribution for L=           2  read in
    real space projection operators read in
  non local Contribution for L=           0  read in
    real space projection operators read in
  non local Contribution for L=           0  read in
    real space projection operators read in
  non local Contribution for L=           1  read in
    real space projection operators read in
  non local Contribution for L=           1  read in
    real space projection operators read in
    PAW grid and wavefunctions read in
 
   number of l-projection  operators is LMAX  =           6
   number of lm-projection operators is LMMAX =          18
 
 POTCAR:    PAW_PBE Zn 06Sep2000                  
   VRHFIN =Zn: d10 p2                                                           
   LEXCH  = PE                                                                  
   EATOM  =  1748.8345 eV,  128.5357 Ry                                         
                                                                                
   TITEL  = PAW_PBE Zn 06Sep2000                                                
   LULTRA =        F    use ultrasoft PP ?                                      
   IUNSCR =        1    unscreen: 0-lin 1-nonlin 2-no                           
   RPACOR =    2.000    partial core radius                                     
   POMASS =   65.390; ZVAL   =   12.000    mass and valenz                      
   RCORE  =    2.300    outmost cutoff radius                                   
   RWIGS  =    2.400; RWIGS  =    1.270    wigner-seitz radius (au A)           
   ENMAX  =  276.723; ENMIN  =  207.542 eV                                      
   RCLOC  =    1.828    cutoff for local pot                                    
   LCOR   =        T    correct aug charges                                     
   LPAW   =        T    paw PP                                                  
   EAUG   =  575.892                                                            
   DEXC   =    0.000                                                            
   RMAX   =    2.347    core radius for proj-oper                               
   RAUG   =    1.300    factor for augmentation sphere                          
   RDEP   =    2.324    radius for radial grids                                 
   RDEPT  =    1.788    core radius for aug-charge                              
                                                                                
   Atomic configuration                                                         
    9 entries                                                                   
     n  l   j            E        occ.                                          
     1  0  0.50     -9524.6913   2.0000                                         
     2  0  0.50     -1158.1882   2.0000                                         
     2  1  1.50     -1003.8506   6.0000                                         
     3  0  0.50      -129.2194   2.0000                                         
     3  1  1.50       -83.3890   6.0000                                         
     3  2  2.50       -10.1410  10.0000                                         
     4  0  0.50        -5.9785   2.0000                                         
     4  1  0.50        -4.0817   0.0000                                         
     4  3  2.50        -1.3606   0.0000                                         
   Description                                                                  
     l       E           TYP  RCUT    TYP  RCUT                                 
     2    -10.1410010     23  2.300                                             
     2    -11.5015836     23  2.300                                             
     0     -5.9785163     23  2.300                                             
     0      1.1858015     23  2.300                                             
     1     -2.7211652     23  2.300                                             
     1     13.2444212     23  2.300                                             
  local pseudopotential read in
  partial core-charges read in
  partial kinetic energy density read in
  atomic valenz-charges read in
  non local Contribution for L=           2  read in
    real space projection operators read in
  non local Contribution for L=           2  read in
    real space projection operators read in
  non local Contribution for L=           0  read in
    real space projection operators read in
  non local Contribution for L=           0  read in
    real space projection operators read in
  non local Contribution for L=           1  read in
    real space projection operators read in
  non local Contribution for L=           1  read in
    real space projection operators read in
    PAW grid and wavefunctions read in
 
   number of l-projection  operators is LMAX  =           6
   number of lm-projection operators is LMMAX =          18
 
 POTCAR:    PAW_PBE Se 06Sep2000                  
   VRHFIN =Se: s2p4                                                             
   LEXCH  = PE                                                                  
   EATOM  =   257.1286 eV,   18.8984 Ry                                         
                                                                                
   TITEL  = PAW_PBE Se 06Sep2000                                                
   LULTRA =        F    use ultrasoft PP ?                                      
   IUNSCR =        1    unscreen: 0-lin 1-nonlin 2-no                           
   RPACOR =    1.900    partial core radius                                     
   POMASS =   78.960; ZVAL   =    6.000    mass and valenz                      
   RCORE  =    2.100    outmost cutoff radius                                   
   RWIGS  =    2.200; RWIGS  =    1.164    wigner-seitz radius (au A)           
   ENMAX  =  211.555; ENMIN  =  158.666 eV                                      
   ICORE  =        3    local potential                                         
   LCOR   =        T    correct aug charges                                     
   LPAW   =        T    paw PP                                                  
   EAUG   =  446.842                                                            
   DEXC   =    0.000                                                            
   RMAX   =    2.147    core radius for proj-oper                               
   RAUG   =    1.300    factor for augmentation sphere                          
   RDEP   =    2.177    radius for radial grids                                 
   RDEPT  =    1.928    core radius for aug-charge                              
                                                                                
   Atomic configuration                                                         
   10 entries                                                                   
     n  l   j            E        occ.                                          
     1  0  0.50    -12503.4787   2.0000                                         
     2  0  0.50     -1606.9547   2.0000                                         
     2  1  1.50     -1413.3140   6.0000                                         
     3  0  0.50      -213.4885   2.0000                                         
     3  1  1.50      -152.9538   6.0000                                         
     3  2  2.50       -53.1221  10.0000                                         
     4  0  0.50       -17.2865   2.0000                                         
     4  1  0.50        -6.5110   4.0000                                         
     4  2  2.50        -6.8029   0.0000                                         
     4  3  2.50        -6.8029   0.0000                                         
   Description                                                                  
     l       E           TYP  RCUT    TYP  RCUT                                 
     0    -17.2865377     23  2.100                                             
     0    -15.3094411     23  2.100                                             
     1     -6.5110275     23  2.100                                             
     1     -0.0695192     23  2.100                                             
     2     -6.8029130     23  2.100                                             
     3     -1.3605826      7  2.100                                             
  local pseudopotential read in
  partial core-charges read in
  partial kinetic energy density read in
  atomic valenz-charges read in
  non local Contribution for L=           0  read in
    real space projection operators read in
  non local Contribution for L=           0  read in
    real space projection operators read in
  non local Contribution for L=           1  read in
    real space projection operators read in
  non local Contribution for L=           1  read in
    real space projection operators read in
  non local Contribution for L=           2  read in
    real space projection operators read in
    PAW grid and wavefunctions read in
 
   number of l-projection  operators is LMAX  =           5
   number of lm-projection operators is LMMAX =          13
 
  PAW_PBE Ga_d 06Jul2010                :
 energy of atom  1       EATOM=-2148.8298
 kinetic energy error for atom=    0.0026 (will be added to EATOM!!)
  PAW_PBE Zn 06Sep2000                  :
 energy of atom  2       EATOM=-1748.8345
 kinetic energy error for atom=    0.0029 (will be added to EATOM!!)
  PAW_PBE Se 06Sep2000                  :
 energy of atom  3       EATOM= -257.1286
 kinetic energy error for atom=    0.0008 (will be added to EATOM!!)
 
 
 POSCAR: Ga Zn Se                                
  positions in direct lattice
  No initial velocities read in
 exchange correlation table for  LEXCH =        8
   RHO(1)=    0.500       N(1)  =     2000
   RHO(2)=  100.500       N(2)  =     4000
 


--------------------------------------------------------------------------------------------------------


 ion  position               nearest neighbor table
   1  0.000  0.500  0.318-
   2  0.500  0.000  0.682-
   3  0.000  0.000  0.000-   5 2.70   6 2.70   6 2.70   5 2.70
   4  0.500  0.500  0.000-   5 2.70   6 2.70   5 2.70   6 2.70
   5  0.500  0.000  0.214-   3 2.70   4 2.70   4 2.70   3 2.70
   6  0.000  0.500  0.786-   3 2.70   4 2.70   3 2.70   4 2.70
 
  LATTYP: Found a simple tetragonal cell.
 ALAT       =     4.7117740806
 C/A-ratio  =     1.3166958922
  
  Lattice vectors:
  
 A1 = (   4.7117740806,   0.0000000000,   0.0000000000)
 A2 = (   0.0000000000,   4.7117740806,   0.0000000000)
 A3 = (   0.0000000000,   0.0000000000,   6.2039735767)


Analysis of symmetry for initial positions (statically):
=====================================================================
 Subroutine PRICEL returns:
 Original cell was already a primitive cell.
 

 Routine SETGRP: Setting up the symmetry group for a 
 simple tetragonal supercell.


 Subroutine GETGRP returns: Found 16 space group operations
 (whereof  8 operations were pure point group operations)
 out of a pool of 16 trial point group operations.


The static configuration has the point symmetry D_2d.
 The point group associated with its full space group is D_4h.


Analysis of symmetry for dynamics (positions and initial velocities):
=====================================================================
 Subroutine PRICEL returns:
 Original cell was already a primitive cell.
 

 Routine SETGRP: Setting up the symmetry group for a 
 simple tetragonal supercell.


 Subroutine GETGRP returns: Found 16 space group operations
 (whereof  8 operations were pure point group operations)
 out of a pool of 16 trial point group operations.


The dynamic configuration has the point symmetry D_2d.
 The point group associated with its full space group is D_4h.


 Subroutine INISYM returns: Found 16 space group operations
 (whereof  8 operations are pure point group operations),
 and found     1 'primitive' translations

 
 
 KPOINTS: KPOINTS created by HTE                  

Automatic generation of k-mesh.
Space group operators:
 irot       det(A)        alpha          n_x          n_y          n_z        tau_x        tau_y        tau_z
    1     1.000000     0.000000     1.000000     0.000000     0.000000     0.000000     0.000000     0.000000
    2    -1.000000    90.000000     0.000000     0.000000    -1.000000     0.000000     0.000000     0.000000
    3     1.000000   180.000000     0.000000     0.000000     1.000000     0.000000     0.000000     0.000000
    4    -1.000000    90.000000     0.000000     0.000000     1.000000     0.000000     0.000000     0.000000
    5    -1.000000   180.000000     0.000000     1.000000     0.000000     0.000000     0.000000     0.000000
    6     1.000000   180.000000     0.707107     0.707107     0.000000     0.000000     0.000000     0.000000
    7    -1.000000   180.000000     1.000000     0.000000     0.000000     0.000000     0.000000     0.000000
    8     1.000000   180.000000     0.707107    -0.707107     0.000000     0.000000     0.000000     0.000000
    9    -1.000000     0.000000     1.000000     0.000000     0.000000     0.500000     0.500000     0.000000
   10     1.000000    90.000000     0.000000     0.000000    -1.000000     0.500000     0.500000     0.000000
   11    -1.000000   180.000000     0.000000     0.000000     1.000000     0.500000     0.500000     0.000000
   12     1.000000    90.000000     0.000000     0.000000     1.000000     0.500000     0.500000     0.000000
   13     1.000000   180.000000     0.000000     1.000000     0.000000     0.500000     0.500000     0.000000
   14    -1.000000   180.000000     0.707107     0.707107     0.000000     0.500000     0.500000     0.000000
   15     1.000000   180.000000     1.000000     0.000000     0.000000     0.500000     0.500000     0.000000
   16    -1.000000   180.000000     0.707107    -0.707107     0.000000     0.500000     0.500000     0.000000
 
 Subroutine IBZKPT returns following result:
 ===========================================
 
 Found    105 irreducible k-points:
 
 Following reciprocal coordinates:
            Coordinates               Weight
  0.000000  0.000000  0.000000      1.000000
  0.090909  0.000000  0.000000      4.000000
  0.181818  0.000000  0.000000      4.000000
  0.272727  0.000000  0.000000      4.000000
  0.363636  0.000000  0.000000      4.000000
  0.454545  0.000000  0.000000      4.000000
  0.090909  0.090909  0.000000      4.000000
  0.181818  0.090909  0.000000      8.000000
  0.272727  0.090909  0.000000      8.000000
  0.363636  0.090909  0.000000      8.000000
  0.454545  0.090909  0.000000      8.000000
  0.181818  0.181818  0.000000      4.000000
  0.272727  0.181818  0.000000      8.000000
  0.363636  0.181818  0.000000      8.000000
  0.454545  0.181818  0.000000      8.000000
  0.272727  0.272727  0.000000      4.000000
  0.363636  0.272727  0.000000      8.000000
  0.454545  0.272727  0.000000      8.000000
  0.363636  0.363636  0.000000      4.000000
  0.454545  0.363636  0.000000      8.000000
  0.454545  0.454545  0.000000      4.000000
  0.000000  0.000000  0.111111      2.000000
  0.090909  0.000000  0.111111      8.000000
  0.181818  0.000000  0.111111      8.000000
  0.272727  0.000000  0.111111      8.000000
  0.363636  0.000000  0.111111      8.000000
  0.454545  0.000000  0.111111      8.000000
  0.090909  0.090909  0.111111      8.000000
  0.181818  0.090909  0.111111     16.000000
  0.272727  0.090909  0.111111     16.000000
  0.363636  0.090909  0.111111     16.000000
  0.454545  0.090909  0.111111     16.000000
  0.181818  0.181818  0.111111      8.000000
  0.272727  0.181818  0.111111     16.000000
  0.363636  0.181818  0.111111     16.000000
  0.454545  0.181818  0.111111     16.000000
  0.272727  0.272727  0.111111      8.000000
  0.363636  0.272727  0.111111     16.000000
  0.454545  0.272727  0.111111     16.000000
  0.363636  0.363636  0.111111      8.000000
  0.454545  0.363636  0.111111     16.000000
  0.454545  0.454545  0.111111      8.000000
  0.000000  0.000000  0.222222      2.000000
  0.090909  0.000000  0.222222      8.000000
  0.181818  0.000000  0.222222      8.000000
  0.272727  0.000000  0.222222      8.000000
  0.363636  0.000000  0.222222      8.000000
  0.454545  0.000000  0.222222      8.000000
  0.090909  0.090909  0.222222      8.000000
  0.181818  0.090909  0.222222     16.000000
  0.272727  0.090909  0.222222     16.000000
  0.363636  0.090909  0.222222     16.000000
  0.454545  0.090909  0.222222     16.000000
  0.181818  0.181818  0.222222      8.000000
  0.272727  0.181818  0.222222     16.000000
  0.363636  0.181818  0.222222     16.000000
  0.454545  0.181818  0.222222     16.000000
  0.272727  0.272727  0.222222      8.000000
  0.363636  0.272727  0.222222     16.000000
  0.454545  0.272727  0.222222     16.000000
  0.363636  0.363636  0.222222      8.000000
  0.454545  0.363636  0.222222     16.000000
  0.454545  0.454545  0.222222      8.000000
  0.000000  0.000000  0.333333      2.000000
  0.090909  0.000000  0.333333      8.000000
  0.181818  0.000000  0.333333      8.000000
  0.272727  0.000000  0.333333      8.000000
  0.363636  0.000000  0.333333      8.000000
  0.454545  0.000000  0.333333      8.000000
  0.090909  0.090909  0.333333      8.000000
  0.181818  0.090909  0.333333     16.000000
  0.272727  0.090909  0.333333     16.000000
  0.363636  0.090909  0.333333     16.000000
  0.454545  0.090909  0.333333     16.000000
  0.181818  0.181818  0.333333      8.000000
  0.272727  0.181818  0.333333     16.000000
  0.363636  0.181818  0.333333     16.000000
  0.454545  0.181818  0.333333     16.000000
  0.272727  0.272727  0.333333      8.000000
  0.363636  0.272727  0.333333     16.000000
  0.454545  0.272727  0.333333     16.000000
  0.363636  0.363636  0.333333      8.000000
  0.454545  0.363636  0.333333     16.000000
  0.454545  0.454545  0.333333      8.000000
  0.000000  0.000000  0.444444      2.000000
  0.090909  0.000000  0.444444      8.000000
  0.181818  0.000000  0.444444      8.000000
  0.272727  0.000000  0.444444      8.000000
  0.363636  0.000000  0.444444      8.000000
  0.454545  0.000000  0.444444      8.000000
  0.090909  0.090909  0.444444      8.000000
  0.181818  0.090909  0.444444     16.000000
  0.272727  0.090909  0.444444     16.000000
  0.363636  0.090909  0.444444     16.000000
  0.454545  0.090909  0.444444     16.000000
  0.181818  0.181818  0.444444      8.000000
  0.272727  0.181818  0.444444     16.000000
  0.363636  0.181818  0.444444     16.000000
  0.454545  0.181818  0.444444     16.000000
  0.272727  0.272727  0.444444      8.000000
  0.363636  0.272727  0.444444     16.000000
  0.454545  0.272727  0.444444     16.000000
  0.363636  0.363636  0.444444      8.000000
  0.454545  0.363636  0.444444     16.000000
  0.454545  0.454545  0.444444      8.000000
 
 Following cartesian coordinates:
            Coordinates               Weight
  0.000000  0.000000  0.000000      1.000000
  0.019294  0.000000  0.000000      4.000000
  0.038588  0.000000  0.000000      4.000000
  0.057882  0.000000  0.000000      4.000000
  0.077176  0.000000  0.000000      4.000000
  0.096470  0.000000  0.000000      4.000000
  0.019294  0.019294  0.000000      4.000000
  0.038588  0.019294  0.000000      8.000000
  0.057882  0.019294  0.000000      8.000000
  0.077176  0.019294  0.000000      8.000000
  0.096470  0.019294  0.000000      8.000000
  0.038588  0.038588  0.000000      4.000000
  0.057882  0.038588  0.000000      8.000000
  0.077176  0.038588  0.000000      8.000000
  0.096470  0.038588  0.000000      8.000000
  0.057882  0.057882  0.000000      4.000000
  0.077176  0.057882  0.000000      8.000000
  0.096470  0.057882  0.000000      8.000000
  0.077176  0.077176  0.000000      4.000000
  0.096470  0.077176  0.000000      8.000000
  0.096470  0.096470  0.000000      4.000000
  0.000000  0.000000  0.017910      2.000000
  0.019294  0.000000  0.017910      8.000000
  0.038588  0.000000  0.017910      8.000000
  0.057882  0.000000  0.017910      8.000000
  0.077176  0.000000  0.017910      8.000000
  0.096470  0.000000  0.017910      8.000000
  0.019294  0.019294  0.017910      8.000000
  0.038588  0.019294  0.017910     16.000000
  0.057882  0.019294  0.017910     16.000000
  0.077176  0.019294  0.017910     16.000000
  0.096470  0.019294  0.017910     16.000000
  0.038588  0.038588  0.017910      8.000000
  0.057882  0.038588  0.017910     16.000000
  0.077176  0.038588  0.017910     16.000000
  0.096470  0.038588  0.017910     16.000000
  0.057882  0.057882  0.017910      8.000000
  0.077176  0.057882  0.017910     16.000000
  0.096470  0.057882  0.017910     16.000000
  0.077176  0.077176  0.017910      8.000000
  0.096470  0.077176  0.017910     16.000000
  0.096470  0.096470  0.017910      8.000000
  0.000000  0.000000  0.035819      2.000000
  0.019294  0.000000  0.035819      8.000000
  0.038588  0.000000  0.035819      8.000000
  0.057882  0.000000  0.035819      8.000000
  0.077176  0.000000  0.035819      8.000000
  0.096470  0.000000  0.035819      8.000000
  0.019294  0.019294  0.035819      8.000000
  0.038588  0.019294  0.035819     16.000000
  0.057882  0.019294  0.035819     16.000000
  0.077176  0.019294  0.035819     16.000000
  0.096470  0.019294  0.035819     16.000000
  0.038588  0.038588  0.035819      8.000000
  0.057882  0.038588  0.035819     16.000000
  0.077176  0.038588  0.035819     16.000000
  0.096470  0.038588  0.035819     16.000000
  0.057882  0.057882  0.035819      8.000000
  0.077176  0.057882  0.035819     16.000000
  0.096470  0.057882  0.035819     16.000000
  0.077176  0.077176  0.035819      8.000000
  0.096470  0.077176  0.035819     16.000000
  0.096470  0.096470  0.035819      8.000000
  0.000000  0.000000  0.053729      2.000000
  0.019294  0.000000  0.053729      8.000000
  0.038588  0.000000  0.053729      8.000000
  0.057882  0.000000  0.053729      8.000000
  0.077176  0.000000  0.053729      8.000000
  0.096470  0.000000  0.053729      8.000000
  0.019294  0.019294  0.053729      8.000000
  0.038588  0.019294  0.053729     16.000000
  0.057882  0.019294  0.053729     16.000000
  0.077176  0.019294  0.053729     16.000000
  0.096470  0.019294  0.053729     16.000000
  0.038588  0.038588  0.053729      8.000000
  0.057882  0.038588  0.053729     16.000000
  0.077176  0.038588  0.053729     16.000000
  0.096470  0.038588  0.053729     16.000000
  0.057882  0.057882  0.053729      8.000000
  0.077176  0.057882  0.053729     16.000000
  0.096470  0.057882  0.053729     16.000000
  0.077176  0.077176  0.053729      8.000000
  0.096470  0.077176  0.053729     16.000000
  0.096470  0.096470  0.053729      8.000000
  0.000000  0.000000  0.071639      2.000000
  0.019294  0.000000  0.071639      8.000000
  0.038588  0.000000  0.071639      8.000000
  0.057882  0.000000  0.071639      8.000000
  0.077176  0.000000  0.071639      8.000000
  0.096470  0.000000  0.071639      8.000000
  0.019294  0.019294  0.071639      8.000000
  0.038588  0.019294  0.071639     16.000000
  0.057882  0.019294  0.071639     16.000000
  0.077176  0.019294  0.071639     16.000000
  0.096470  0.019294  0.071639     16.000000
  0.038588  0.038588  0.071639      8.000000
  0.057882  0.038588  0.071639     16.000000
  0.077176  0.038588  0.071639     16.000000
  0.096470  0.038588  0.071639     16.000000
  0.057882  0.057882  0.071639      8.000000
  0.077176  0.057882  0.071639     16.000000
  0.096470  0.057882  0.071639     16.000000
  0.077176  0.077176  0.071639      8.000000
  0.096470  0.077176  0.071639     16.000000
  0.096470  0.096470  0.071639      8.000000
 
 TETIRR: Found   1613 inequivalent tetrahedra from     6534


--------------------------------------------------------------------------------------------------------




 Dimension of arrays:
   k-points           NKPTS =    105   k-points in BZ     NKDIM =    105   number of bands    NBANDS=     48
   number of dos      NEDOS =    301   number of ions     NIONS =      6
   non local maximal  LDIM  =      6   non local SUM 2l+1 LMDIM =     18
   total plane-waves  NPLWV =  62208
   max r-space proj   IRMAX =      1   max aug-charges    IRDMAX=   6531
   dimension x,y,z NGX =    36 NGY =   36 NGZ =   48
   dimension x,y,z NGXF=    50 NGYF=   50 NGZF=   64
   support grid    NGXF=    50 NGYF=   50 NGZF=   64
   ions per type =               2   2   2
   NGX,Y,Z   is equivalent  to a cutoff of  12.70, 12.70, 12.86 a.u.
   NGXF,Y,Z  is equivalent  to a cutoff of  17.64, 17.64, 17.15 a.u.

 SYSTEM =  unknown system                          
 POSCAR =  Ga Zn Se                                

 Startparameter for this run:
   NWRITE =      2    write-flag & timer
   PREC   = high      normal or accurate (medium, high low for compatibility)
   ISTART =      0    job   : 0-new  1-cont  2-samecut
   ICHARG =      2    charge: 1-file 2-atom 10-const
   ISPIN  =      1    spin polarized calculation?
   LNONCOLLINEAR =      F non collinear calculations
   LSORBIT =      F    spin-orbit coupling
   INIWAV =      1    electr: 0-lowe 1-rand  2-diag
   LASPH  =      F    aspherical Exc in radial PAW
   METAGGA=      F    non-selfconsistent MetaGGA calc.

 Electronic Relaxation 1
   ENCUT  =  500.0 eV  36.75 Ry    6.06 a.u.   8.59  8.59 11.31*2*pi/ulx,y,z
   ENINI  =  500.0     initial cutoff
   ENAUG  =  575.9 eV  augmentation charge cutoff
   NELM   =     60;   NELMIN=  2; NELMDL= -5     # of ELM steps 
   EDIFF  = 0.1E-03   stopping-criterion for ELM
   LREAL  =      F    real-space projection
   NLSPLINE    = F    spline interpolate recip. space projectors
   LCOMPAT=      F    compatible to vasp.4.4
   GGA_COMPAT  = T    GGA compatible to vasp.4.4-vasp.4.6
   LMAXPAW     = -100 max onsite density
   LMAXMIX     =    2 max onsite mixed and CHGCAR
   VOSKOWN=      0    Vosko Wilk Nusair interpolation
   ROPT   =    0.00000   0.00000   0.00000
 Ionic relaxation
   EDIFFG = 0.1E-02   stopping-criterion for IOM
   NSW    =      0    number of steps for IOM
   NBLOCK =      1;   KBLOCK =      1    inner block; outer block 
   IBRION =     -1    ionic relax: 0-MD 1-quasi-New 2-CG
   NFREE  =      0    steps in history (QN), initial steepest desc. (CG)
   ISIF   =      2    stress and relaxation
   IWAVPR =     10    prediction:  0-non 1-charg 2-wave 3-comb
   ISYM   =      2    0-nonsym 1-usesym 2-fastsym
   LCORR  =      T    Harris-Foulkes like correction to forces

   POTIM  = 0.5000    time-step for ionic-motion
   TEIN   =    0.0    initial temperature
   TEBEG  =    0.0;   TEEND  =   0.0 temperature during run
   SMASS  =  -3.00    Nose mass-parameter (am)
   estimated Nose-frequenzy (Omega)   =  0.10E-29 period in steps =****** mass=  -0.507E-27a.u.
   SCALEE = 1.0000    scale energy and forces
   NPACO  =    256;   APACO  = 16.0  distance and # of slots for P.C.
   PSTRESS=    0.0 pullay stress

  Mass of Ions in am
   POMASS =  69.72 65.39 78.96
  Ionic Valenz
   ZVAL   =  13.00 12.00  6.00
  Atomic Wigner-Seitz radii
   RWIGS  =  -1.00 -1.00 -1.00
  virtual crystal weights 
   VCA    =   1.00  1.00  1.00
   NELECT =      62.0000    total number of electrons
   NUPDOWN=      -1.0000    fix difference up-down

 DOS related values:
   EMIN   =  10.00;   EMAX   =-10.00  energy-range for DOS
   EFERMI =   0.00
   ISMEAR =    -5;   SIGMA  =   0.20  broadening in eV -4-tet -1-fermi 0-gaus

 Electronic relaxation 2 (details)
   IALGO  =     38    algorithm
   LDIAG  =      T    sub-space diagonalisation (order eigenvalues)
   LSUBROT=      F    optimize rotation matrix (better conditioning)
   TURBO    =      0    0=normal 1=particle mesh
   IRESTART =      0    0=no restart 2=restart with 2 vectors
   NREBOOT  =      0    no. of reboots
   NMIN     =      0    reboot dimension
   EREF     =   0.00    reference energy to select bands
   IMIX   =      4    mixing-type and parameters
     AMIX     =   0.40;   BMIX     =  1.00
     AMIX_MAG =   1.60;   BMIX_MAG =  1.00
     AMIN     =   0.10
     WC   =   100.;   INIMIX=   1;  MIXPRE=   1;  MAXMIX= -45

 Intra band minimization:
   WEIMIN = 0.0000     energy-eigenvalue tresh-hold
   EBREAK =  0.52E-06  absolut break condition
   DEPER  =   0.30     relativ break condition  

   TIME   =   0.40     timestep for ELM

  volume/ion in A,a.u.               =      22.96       154.91
  Fermi-wavevector in a.u.,A,eV,Ry     =   1.254659  2.370962 21.417879  1.574170
  Thomas-Fermi vector in A             =   2.388453
 
 Write flags
   LWAVE        =      F    write WAVECAR
   LDOWNSAMPLE  =      F    k-point downsampling of WAVECAR
   LCHARG       =      F    write CHGCAR
   LVTOT        =      F    write LOCPOT, total local potential
   LVHAR        =      F    write LOCPOT, Hartree potential only
   LELF         =      F    write electronic localiz. function (ELF)
   LORBIT       =     11    0 simple, 1 ext, 2 COOP (PROOUT), +10 PAW based schemes


 Dipole corrections
   LMONO  =      F    monopole corrections only (constant potential shift)
   LDIPOL =      F    correct potential (dipole corrections)
   IDIPOL =      0    1-x, 2-y, 3-z, 4-all directions 
   EPSILON=  1.0000000 bulk dielectric constant

 Exchange correlation treatment:
   GGA     =    --    GGA type
   LEXCH   =     8    internal setting for exchange type
   VOSKOWN=      0    Vosko Wilk Nusair interpolation
   LHFCALC =     F    Hartree Fock is set to
   LHFONE  =     F    Hartree Fock one center treatment
   AEXX    =    0.0000 exact exchange contribution

 Linear response parameters
   LEPSILON=     F    determine dielectric tensor
   LRPA    =     F    only Hartree local field effects (RPA)
   LNABLA  =     F    use nabla operator in PAW spheres
   LVEL    =     F    velocity operator in full k-point grid
   LINTERFAST=   F  fast interpolation
   KINTER  =     0    interpolate to denser k-point grid
   CSHIFT  =0.1000    complex shift for real part using Kramers Kronig
   OMEGAMAX=  -1.0    maximum frequency
   DEG_THRESHOLD= 0.2000000E-02 threshold for treating states as degnerate
   RTIME   =   -0.100 relaxation time in fs
  (WPLASMAI=    0.000 imaginary part of plasma frequency in eV, 0.658/RTIME)
   DFIELD  = 0.0000000 0.0000000 0.0000000 field for delta impulse in time
 
 Orbital magnetization related:
   ORBITALMAG=     F  switch on orbital magnetization
   LCHIMAG   =     F  perturbation theory with respect to B field
   DQ        =  0.001000  dq finite difference perturbation B field
   LLRAUG    =     F  two centre corrections for induced B field



--------------------------------------------------------------------------------------------------------


 Static calculation
 charge density and potential will be updated during run
 non-spin polarized calculation
 Variant of blocked Davidson
 Davidson routine will perform the subspace rotation
 perform sub-space diagonalisation
    after iterative eigenvector-optimisation
 modified Broyden-mixing scheme, WC =      100.0
 initial mixing is a Kerker type mixing with AMIX =  0.4000 and BMIX =      1.0000
 Hartree-type preconditioning will be used
 using additional bands           17
 reciprocal scheme for non local part
 use partial core corrections
 calculate Harris-corrections to forces 
   (improved forces if not selfconsistent)
 use gradient corrections 
 use of overlap-Matrix (Vanderbilt PP)
 Fermi weights with tetrahedron method with Bloechl corrections


--------------------------------------------------------------------------------------------------------


  energy-cutoff  :      500.00
  volume of cell :      137.73
      direct lattice vectors                 reciprocal lattice vectors
     4.711774081  0.000000000  0.000000000     0.212234284  0.000000000  0.000000000
     0.000000000  4.711774081  0.000000000     0.000000000  0.212234284  0.000000000
     0.000000000  0.000000000  6.203973577     0.000000000  0.000000000  0.161187018

  length of vectors
     4.711774081  4.711774081  6.203973577     0.212234284  0.212234284  0.161187018


 
 k-points in units of 2pi/SCALE and weight: KPOINTS created by HTE                  
   0.00000000  0.00000000  0.00000000       0.001
   0.01929403  0.00000000  0.00000000       0.004
   0.03858805  0.00000000  0.00000000       0.004
   0.05788208  0.00000000  0.00000000       0.004
   0.07717610  0.00000000  0.00000000       0.004
   0.09647013  0.00000000  0.00000000       0.004
   0.01929403  0.01929403  0.00000000       0.004
   0.03858805  0.01929403  0.00000000       0.007
   0.05788208  0.01929403  0.00000000       0.007
   0.07717610  0.01929403  0.00000000       0.007
   0.09647013  0.01929403  0.00000000       0.007
   0.03858805  0.03858805  0.00000000       0.004
   0.05788208  0.03858805  0.00000000       0.007
   0.07717610  0.03858805  0.00000000       0.007
   0.09647013  0.03858805  0.00000000       0.007
   0.05788208  0.05788208  0.00000000       0.004
   0.07717610  0.05788208  0.00000000       0.007
   0.09647013  0.05788208  0.00000000       0.007
   0.07717610  0.07717610  0.00000000       0.004
   0.09647013  0.07717610  0.00000000       0.007
   0.09647013  0.09647013  0.00000000       0.004
   0.00000000  0.00000000  0.01790967       0.002
   0.01929403  0.00000000  0.01790967       0.007
   0.03858805  0.00000000  0.01790967       0.007
   0.05788208  0.00000000  0.01790967       0.007
   0.07717610  0.00000000  0.01790967       0.007
   0.09647013  0.00000000  0.01790967       0.007
   0.01929403  0.01929403  0.01790967       0.007
   0.03858805  0.01929403  0.01790967       0.015
   0.05788208  0.01929403  0.01790967       0.015
   0.07717610  0.01929403  0.01790967       0.015
   0.09647013  0.01929403  0.01790967       0.015
   0.03858805  0.03858805  0.01790967       0.007
   0.05788208  0.03858805  0.01790967       0.015
   0.07717610  0.03858805  0.01790967       0.015
   0.09647013  0.03858805  0.01790967       0.015
   0.05788208  0.05788208  0.01790967       0.007
   0.07717610  0.05788208  0.01790967       0.015
   0.09647013  0.05788208  0.01790967       0.015
   0.07717610  0.07717610  0.01790967       0.007
   0.09647013  0.07717610  0.01790967       0.015
   0.09647013  0.09647013  0.01790967       0.007
   0.00000000  0.00000000  0.03581934       0.002
   0.01929403  0.00000000  0.03581934       0.007
   0.03858805  0.00000000  0.03581934       0.007
   0.05788208  0.00000000  0.03581934       0.007
   0.07717610  0.00000000  0.03581934       0.007
   0.09647013  0.00000000  0.03581934       0.007
   0.01929403  0.01929403  0.03581934       0.007
   0.03858805  0.01929403  0.03581934       0.015
   0.05788208  0.01929403  0.03581934       0.015
   0.07717610  0.01929403  0.03581934       0.015
   0.09647013  0.01929403  0.03581934       0.015
   0.03858805  0.03858805  0.03581934       0.007
   0.05788208  0.03858805  0.03581934       0.015
   0.07717610  0.03858805  0.03581934       0.015
   0.09647013  0.03858805  0.03581934       0.015
   0.05788208  0.05788208  0.03581934       0.007
   0.07717610  0.05788208  0.03581934       0.015
   0.09647013  0.05788208  0.03581934       0.015
   0.07717610  0.07717610  0.03581934       0.007
   0.09647013  0.07717610  0.03581934       0.015
   0.09647013  0.09647013  0.03581934       0.007
   0.00000000  0.00000000  0.05372901       0.002
   0.01929403  0.00000000  0.05372901       0.007
   0.03858805  0.00000000  0.05372901       0.007
   0.05788208  0.00000000  0.05372901       0.007
   0.07717610  0.00000000  0.05372901       0.007
   0.09647013  0.00000000  0.05372901       0.007
   0.01929403  0.01929403  0.05372901       0.007
   0.03858805  0.01929403  0.05372901       0.015
   0.05788208  0.01929403  0.05372901       0.015
   0.07717610  0.01929403  0.05372901       0.015
   0.09647013  0.01929403  0.05372901       0.015
   0.03858805  0.03858805  0.05372901       0.007
   0.05788208  0.03858805  0.05372901       0.015
   0.07717610  0.03858805  0.05372901       0.015
   0.09647013  0.03858805  0.05372901       0.015
   0.05788208  0.05788208  0.05372901       0.007
   0.07717610  0.05788208  0.05372901       0.015
   0.09647013  0.05788208  0.05372901       0.015
   0.07717610  0.07717610  0.05372901       0.007
   0.09647013  0.07717610  0.05372901       0.015
   0.09647013  0.09647013  0.05372901       0.007
   0.00000000  0.00000000  0.07163867       0.002
   0.01929403  0.00000000  0.07163867       0.007
   0.03858805  0.00000000  0.07163867       0.007
   0.05788208  0.00000000  0.07163867       0.007
   0.07717610  0.00000000  0.07163867       0.007
   0.09647013  0.00000000  0.07163867       0.007
   0.01929403  0.01929403  0.07163867       0.007
   0.03858805  0.01929403  0.07163867       0.015
   0.05788208  0.01929403  0.07163867       0.015
   0.07717610  0.01929403  0.07163867       0.015
   0.09647013  0.01929403  0.07163867       0.015
   0.03858805  0.03858805  0.07163867       0.007
   0.05788208  0.03858805  0.07163867       0.015
   0.07717610  0.03858805  0.07163867       0.015
   0.09647013  0.03858805  0.07163867       0.015
   0.05788208  0.05788208  0.07163867       0.007
   0.07717610  0.05788208  0.07163867       0.015
   0.09647013  0.05788208  0.07163867       0.015
   0.07717610  0.07717610  0.07163867       0.007
   0.09647013  0.07717610  0.07163867       0.015
   0.09647013  0.09647013  0.07163867       0.007
 
 k-points in reciprocal lattice and weights: KPOINTS created by HTE                  
   0.00000000  0.00000000  0.00000000       0.001
   0.09090909  0.00000000  0.00000000       0.004
   0.18181818  0.00000000  0.00000000       0.004
   0.27272727  0.00000000  0.00000000       0.004
   0.36363636  0.00000000  0.00000000       0.004
   0.45454545  0.00000000  0.00000000       0.004
   0.09090909  0.09090909  0.00000000       0.004
   0.18181818  0.09090909  0.00000000       0.007
   0.27272727  0.09090909  0.00000000       0.007
   0.36363636  0.09090909  0.00000000       0.007
   0.45454545  0.09090909  0.00000000       0.007
   0.18181818  0.18181818  0.00000000       0.004
   0.27272727  0.18181818  0.00000000       0.007
   0.36363636  0.18181818  0.00000000       0.007
   0.45454545  0.18181818  0.00000000       0.007
   0.27272727  0.27272727  0.00000000       0.004
   0.36363636  0.27272727  0.00000000       0.007
   0.45454545  0.27272727  0.00000000       0.007
   0.36363636  0.36363636  0.00000000       0.004
   0.45454545  0.36363636  0.00000000       0.007
   0.45454545  0.45454545  0.00000000       0.004
   0.00000000  0.00000000  0.11111111       0.002
   0.09090909  0.00000000  0.11111111       0.007
   0.18181818  0.00000000  0.11111111       0.007
   0.27272727  0.00000000  0.11111111       0.007
   0.36363636  0.00000000  0.11111111       0.007
   0.45454545  0.00000000  0.11111111       0.007
   0.09090909  0.09090909  0.11111111       0.007
   0.18181818  0.09090909  0.11111111       0.015
   0.27272727  0.09090909  0.11111111       0.015
   0.36363636  0.09090909  0.11111111       0.015
   0.45454545  0.09090909  0.11111111       0.015
   0.18181818  0.18181818  0.11111111       0.007
   0.27272727  0.18181818  0.11111111       0.015
   0.36363636  0.18181818  0.11111111       0.015
   0.45454545  0.18181818  0.11111111       0.015
   0.27272727  0.27272727  0.11111111       0.007
   0.36363636  0.27272727  0.11111111       0.015
   0.45454545  0.27272727  0.11111111       0.015
   0.36363636  0.36363636  0.11111111       0.007
   0.45454545  0.36363636  0.11111111       0.015
   0.45454545  0.45454545  0.11111111       0.007
   0.00000000  0.00000000  0.22222222       0.002
   0.09090909  0.00000000  0.22222222       0.007
   0.18181818  0.00000000  0.22222222       0.007
   0.27272727  0.00000000  0.22222222       0.007
   0.36363636  0.00000000  0.22222222       0.007
   0.45454545  0.00000000  0.22222222       0.007
   0.09090909  0.09090909  0.22222222       0.007
   0.18181818  0.09090909  0.22222222       0.015
   0.27272727  0.09090909  0.22222222       0.015
   0.36363636  0.09090909  0.22222222       0.015
   0.45454545  0.09090909  0.22222222       0.015
   0.18181818  0.18181818  0.22222222       0.007
   0.27272727  0.18181818  0.22222222       0.015
   0.36363636  0.18181818  0.22222222       0.015
   0.45454545  0.18181818  0.22222222       0.015
   0.27272727  0.27272727  0.22222222       0.007
   0.36363636  0.27272727  0.22222222       0.015
   0.45454545  0.27272727  0.22222222       0.015
   0.36363636  0.36363636  0.22222222       0.007
   0.45454545  0.36363636  0.22222222       0.015
   0.45454545  0.45454545  0.22222222       0.007
   0.00000000  0.00000000  0.33333333       0.002
   0.09090909  0.00000000  0.33333333       0.007
   0.18181818  0.00000000  0.33333333       0.007
   0.27272727  0.00000000  0.33333333       0.007
   0.36363636  0.00000000  0.33333333       0.007
   0.45454545  0.00000000  0.33333333       0.007
   0.09090909  0.09090909  0.33333333       0.007
   0.18181818  0.09090909  0.33333333       0.015
   0.27272727  0.09090909  0.33333333       0.015
   0.36363636  0.09090909  0.33333333       0.015
   0.45454545  0.09090909  0.33333333       0.015
   0.18181818  0.18181818  0.33333333       0.007
   0.27272727  0.18181818  0.33333333       0.015
   0.36363636  0.18181818  0.33333333       0.015
   0.45454545  0.18181818  0.33333333       0.015
   0.27272727  0.27272727  0.33333333       0.007
   0.36363636  0.27272727  0.33333333       0.015
   0.45454545  0.27272727  0.33333333       0.015
   0.36363636  0.36363636  0.33333333       0.007
   0.45454545  0.36363636  0.33333333       0.015
   0.45454545  0.45454545  0.33333333       0.007
   0.00000000  0.00000000  0.44444444       0.002
   0.09090909  0.00000000  0.44444444       0.007
   0.18181818  0.00000000  0.44444444       0.007
   0.27272727  0.00000000  0.44444444       0.007
   0.36363636  0.00000000  0.44444444       0.007
   0.45454545  0.00000000  0.44444444       0.007
   0.09090909  0.09090909  0.44444444       0.007
   0.18181818  0.09090909  0.44444444       0.015
   0.27272727  0.09090909  0.44444444       0.015
   0.36363636  0.09090909  0.44444444       0.015
   0.45454545  0.09090909  0.44444444       0.015
   0.18181818  0.18181818  0.44444444       0.007
   0.27272727  0.18181818  0.44444444       0.015
   0.36363636  0.18181818  0.44444444       0.015
   0.45454545  0.18181818  0.44444444       0.015
   0.27272727  0.27272727  0.44444444       0.007
   0.36363636  0.27272727  0.44444444       0.015
   0.45454545  0.27272727  0.44444444       0.015
   0.36363636  0.36363636  0.44444444       0.007
   0.45454545  0.36363636  0.44444444       0.015
   0.45454545  0.45454545  0.44444444       0.007
 
 position of ions in fractional coordinates (direct lattice) 
   0.00000000  0.50000000  0.31789266
   0.50000000  0.00000000  0.68210734
   0.00000000  0.00000000  0.00000000
   0.50000000  0.50000000  0.00000000
   0.50000000  0.00000000  0.21391987
   0.00000000  0.50000000  0.78608013
 
 position of ions in cartesian coordinates  (Angst):
   0.00000000  2.35588704  1.97219767
   2.35588704  0.00000000  4.23177590
   0.00000000  0.00000000  0.00000000
   2.35588704  2.35588704  0.00000000
   2.35588704  0.00000000  1.32715323
   0.00000000  2.35588704  4.87682035
 


--------------------------------------------------------------------------------------------------------


 k-point  1 :   0.0000 0.0000 0.0000  plane waves:    3519
 k-point  2 :   0.0909 0.0000 0.0000  plane waves:    3509
 k-point  3 :   0.1818 0.0000 0.0000  plane waves:    3505
 k-point  4 :   0.2727 0.0000 0.0000  plane waves:    3509
 k-point  5 :   0.3636 0.0000 0.0000  plane waves:    3497
 k-point  6 :   0.4545 0.0000 0.0000  plane waves:    3490
 k-point  7 :   0.0909 0.0909 0.0000  plane waves:    3498
 k-point  8 :   0.1818 0.0909 0.0000  plane waves:    3507
 k-point  9 :   0.2727 0.0909 0.0000  plane waves:    3500
 k-point 10 :   0.3636 0.0909 0.0000  plane waves:    3505
 k-point 11 :   0.4545 0.0909 0.0000  plane waves:    3498
 k-point 12 :   0.1818 0.1818 0.0000  plane waves:    3496
 k-point 13 :   0.2727 0.1818 0.0000  plane waves:    3493
 k-point 14 :   0.3636 0.1818 0.0000  plane waves:    3509
 k-point 15 :   0.4545 0.1818 0.0000  plane waves:    3504
 k-point 16 :   0.2727 0.2727 0.0000  plane waves:    3500
 k-point 17 :   0.3636 0.2727 0.0000  plane waves:    3489
 k-point 18 :   0.4545 0.2727 0.0000  plane waves:    3487
 k-point 19 :   0.3636 0.3636 0.0000  plane waves:    3480
 k-point 20 :   0.4545 0.3636 0.0000  plane waves:    3493
 k-point 21 :   0.4545 0.4545 0.0000  plane waves:    3498
 k-point 22 :   0.0000 0.0000 0.1111  plane waves:    3523
 k-point 23 :   0.0909 0.0000 0.1111  plane waves:    3517
 k-point 24 :   0.1818 0.0000 0.1111  plane waves:    3506
 k-point 25 :   0.2727 0.0000 0.1111  plane waves:    3498
 k-point 26 :   0.3636 0.0000 0.1111  plane waves:    3498
 k-point 27 :   0.4545 0.0000 0.1111  plane waves:    3495
 k-point 28 :   0.0909 0.0909 0.1111  plane waves:    3499
 k-point 29 :   0.1818 0.0909 0.1111  plane waves:    3505
 k-point 30 :   0.2727 0.0909 0.1111  plane waves:    3504
 k-point 31 :   0.3636 0.0909 0.1111  plane waves:    3497
 k-point 32 :   0.4545 0.0909 0.1111  plane waves:    3494
 k-point 33 :   0.1818 0.1818 0.1111  plane waves:    3497
 k-point 34 :   0.2727 0.1818 0.1111  plane waves:    3491
 k-point 35 :   0.3636 0.1818 0.1111  plane waves:    3502
 k-point 36 :   0.4545 0.1818 0.1111  plane waves:    3502
 k-point 37 :   0.2727 0.2727 0.1111  plane waves:    3499
 k-point 38 :   0.3636 0.2727 0.1111  plane waves:    3497
 k-point 39 :   0.4545 0.2727 0.1111  plane waves:    3494
 k-point 40 :   0.3636 0.3636 0.1111  plane waves:    3491
 k-point 41 :   0.4545 0.3636 0.1111  plane waves:    3489
 k-point 42 :   0.4545 0.4545 0.1111  plane waves:    3493
 k-point 43 :   0.0000 0.0000 0.2222  plane waves:    3491
 k-point 44 :   0.0909 0.0000 0.2222  plane waves:    3500
 k-point 45 :   0.1818 0.0000 0.2222  plane waves:    3502
 k-point 46 :   0.2727 0.0000 0.2222  plane waves:    3501
 k-point 47 :   0.3636 0.0000 0.2222  plane waves:    3496
 k-point 48 :   0.4545 0.0000 0.2222  plane waves:    3498
 k-point 49 :   0.0909 0.0909 0.2222  plane waves:    3494
 k-point 50 :   0.1818 0.0909 0.2222  plane waves:    3509
 k-point 51 :   0.2727 0.0909 0.2222  plane waves:    3504
 k-point 52 :   0.3636 0.0909 0.2222  plane waves:    3488
 k-point 53 :   0.4545 0.0909 0.2222  plane waves:    3502
 k-point 54 :   0.1818 0.1818 0.2222  plane waves:    3508
 k-point 55 :   0.2727 0.1818 0.2222  plane waves:    3501
 k-point 56 :   0.3636 0.1818 0.2222  plane waves:    3493
 k-point 57 :   0.4545 0.1818 0.2222  plane waves:    3501
 k-point 58 :   0.2727 0.2727 0.2222  plane waves:    3504
 k-point 59 :   0.3636 0.2727 0.2222  plane waves:    3491
 k-point 60 :   0.4545 0.2727 0.2222  plane waves:    3486
 k-point 61 :   0.3636 0.3636 0.2222  plane waves:    3500
 k-point 62 :   0.4545 0.3636 0.2222  plane waves:    3485
 k-point 63 :   0.4545 0.4545 0.2222  plane waves:    3492
 k-point 64 :   0.0000 0.0000 0.3333  plane waves:    3478
 k-point 65 :   0.0909 0.0000 0.3333  plane waves:    3488
 k-point 66 :   0.1818 0.0000 0.3333  plane waves:    3499
 k-point 67 :   0.2727 0.0000 0.3333  plane waves:    3509
 k-point 68 :   0.3636 0.0000 0.3333  plane waves:    3499
 k-point 69 :   0.4545 0.0000 0.3333  plane waves:    3500
 k-point 70 :   0.0909 0.0909 0.3333  plane waves:    3497
 k-point 71 :   0.1818 0.0909 0.3333  plane waves:    3501
 k-point 72 :   0.2727 0.0909 0.3333  plane waves:    3507
 k-point 73 :   0.3636 0.0909 0.3333  plane waves:    3503
 k-point 74 :   0.4545 0.0909 0.3333  plane waves:    3499
 k-point 75 :   0.1818 0.1818 0.3333  plane waves:    3506
 k-point 76 :   0.2727 0.1818 0.3333  plane waves:    3504
 k-point 77 :   0.3636 0.1818 0.3333  plane waves:    3493
 k-point 78 :   0.4545 0.1818 0.3333  plane waves:    3489
 k-point 79 :   0.2727 0.2727 0.3333  plane waves:    3503
 k-point 80 :   0.3636 0.2727 0.3333  plane waves:    3495
 k-point 81 :   0.4545 0.2727 0.3333  plane waves:    3484
 k-point 82 :   0.3636 0.3636 0.3333  plane waves:    3488
 k-point 83 :   0.4545 0.3636 0.3333  plane waves:    3477
 k-point 84 :   0.4545 0.4545 0.3333  plane waves:    3475
 k-point 85 :   0.0000 0.0000 0.4444  plane waves:    3490
 k-point 86 :   0.0909 0.0000 0.4444  plane waves:    3501
 k-point 87 :   0.1818 0.0000 0.4444  plane waves:    3496
 k-point 88 :   0.2727 0.0000 0.4444  plane waves:    3504
 k-point 89 :   0.3636 0.0000 0.4444  plane waves:    3496
 k-point 90 :   0.4545 0.0000 0.4444  plane waves:    3515
 k-point 91 :   0.0909 0.0909 0.4444  plane waves:    3504
 k-point 92 :   0.1818 0.0909 0.4444  plane waves:    3498
 k-point 93 :   0.2727 0.0909 0.4444  plane waves:    3503
 k-point 94 :   0.3636 0.0909 0.4444  plane waves:    3504
 k-point 95 :   0.4545 0.0909 0.4444  plane waves:    3498
 k-point 96 :   0.1818 0.1818 0.4444  plane waves:    3516
 k-point 97 :   0.2727 0.1818 0.4444  plane waves:    3502
 k-point 98 :   0.3636 0.1818 0.4444  plane waves:    3492
 k-point 99 :   0.4545 0.1818 0.4444  plane waves:    3492
 k-point ** :   0.2727 0.2727 0.4444  plane waves:    3494
 k-point ** :   0.3636 0.2727 0.4444  plane waves:    3494
 k-point ** :   0.4545 0.2727 0.4444  plane waves:    3487
 k-point ** :   0.3636 0.3636 0.4444  plane waves:    3484
 k-point ** :   0.4545 0.3636 0.4444  plane waves:    3481
 k-point ** :   0.4545 0.4545 0.4444  plane waves:    3479

 maximum and minimum number of plane-waves per node :      3523     3475

 maximum number of plane-waves:      3523
 maximum index in each direction: 
   IXMAX=    8   IYMAX=    8   IZMAX=   11
   IXMIN=   -9   IYMIN=   -9   IZMIN=  -11


 serial   3D FFT for wavefunctions
 parallel 3D FFT for charge:
    minimum data exchange during FFTs selected (reduces bandwidth)


 total amount of memory used by VASP MPI-rank0   201163. kBytes
=======================================================================

   base      :      30000. kBytes
   nonl-proj :     161459. kBytes
   fftplans  :        474. kBytes
   grid      :       2928. kBytes
   one-center:         93. kBytes
   wavefun   :       6209. kBytes
 
     INWAV:  cpu time    0.0000: real time    0.0002
 Broyden mixing: mesh for mixing (old mesh)
   NGX = 17   NGY = 17   NGZ = 23
  (NGX  = 50   NGY  = 50   NGZ  = 64)
  gives a total of   6647 points

 initial charge density was supplied:
 charge density of overlapping atoms calculated
 number of electron      62.0000000 magnetization 
 keeping initial charge density in first step


--------------------------------------------------------------------------------------------------------


 Maximum index for augmentation-charges          794 (set IRDMAX)


--------------------------------------------------------------------------------------------------------


 First call to EWALD:  gamma=   0.343
 Maximum number of real-space cells 3x 3x 2
 Maximum number of reciprocal cells 3x 3x 3

    FEWALD:  cpu time    0.0025: real time    0.0025


--------------------------------------- Iteration      1(   1)  ---------------------------------------


    POTLOK:  cpu time    0.6867: real time    0.6926
    SETDIJ:  cpu time    0.0388: real time    0.0393
     EDDAV:  cpu time    2.2463: real time    2.2602
 BZINTS: Fermi energy:  7.775778; 62.000000 electrons
         Band energy:-201.846947;  BLOECHL correction: -0.103063
       DOS:  cpu time    0.1068: real time    0.1075
    --------------------------------------------
      LOOP:  cpu time    3.0787: real time    3.0996

 eigenvalue-minimisations  : 10080
 total energy-change (2. order) : 0.1184752E+03  (-0.3347065E+04)
 number of electron      62.0000000 magnetization 
 augmentation part       62.0000000 magnetization 

 Free energy of the ion-electron system (eV)
  ---------------------------------------------------
  alpha Z        PSCENC =       264.58872817
  Ewald energy   TEWEN  =     -4708.08965526
  -Hartree energ DENC   =     -2750.12703689
  -exchange      EXHF   =         0.00000000
  -V(xc)+E(xc)   XCENC  =       199.06568993
  PAW double counting   =      6537.37067607    -7532.05940680
  entropy T*S    EENTRO =         0.00000000
  eigenvalues    EBANDS =      -201.84694698
  atomic energy  EATOM  =      8309.57314779
  Solvation  Ediel_sol  =         0.00000000
  ---------------------------------------------------
  free energy    TOTEN  =       118.47519603 eV

  energy without entropy =      118.47519603  energy(sigma->0) =      118.47519603


--------------------------------------------------------------------------------------------------------




--------------------------------------- Iteration      1(   2)  ---------------------------------------


     EDDAV:  cpu time    5.7570: real time    5.8008
 BZINTS: Fermi energy:  3.625256; 62.000000 electrons
         Band energy:-332.780122;  BLOECHL correction: -0.052127
       DOS:  cpu time    0.0984: real time    0.0988
    --------------------------------------------
      LOOP:  cpu time    5.8554: real time    5.8996

 eigenvalue-minimisations  : 11520
 total energy-change (2. order) :-0.1309332E+03  (-0.1304624E+03)
 number of electron      62.0000000 magnetization 
 augmentation part       62.0000000 magnetization 

 Free energy of the ion-electron system (eV)
  ---------------------------------------------------
  alpha Z        PSCENC =       264.58872817
  Ewald energy   TEWEN  =     -4708.08965526
  -Hartree energ DENC   =     -2750.12703689
  -exchange      EXHF   =         0.00000000
  -V(xc)+E(xc)   XCENC  =       199.06568993
  PAW double counting   =      6537.37067607    -7532.05940680
  entropy T*S    EENTRO =         0.00000000
  eigenvalues    EBANDS =      -332.78012229
  atomic energy  EATOM  =      8309.57314779
  Solvation  Ediel_sol  =         0.00000000
  ---------------------------------------------------
  free energy    TOTEN  =       -12.45797928 eV

  energy without entropy =      -12.45797928  energy(sigma->0) =      -12.45797928


--------------------------------------------------------------------------------------------------------




--------------------------------------- Iteration      1(   3)  ---------------------------------------


     EDDAV:  cpu time    3.2326: real time    3.2509
 BZINTS: Fermi energy:  3.518280; 62.000000 electrons
         Band energy:-335.975220;  BLOECHL correction: -0.050685
       DOS:  cpu time    0.1051: real time    0.1056
    --------------------------------------------
      LOOP:  cpu time    3.3378: real time    3.3565

 eigenvalue-minimisations  : 12912
 total energy-change (2. order) :-0.3195098E+01  (-0.3191504E+01)
 number of electron      62.0000000 magnetization 
 augmentation part       62.0000000 magnetization 

 Free energy of the ion-electron system (eV)
  ---------------------------------------------------
  alpha Z        PSCENC =       264.58872817
  Ewald energy   TEWEN  =     -4708.08965526
  -Hartree energ DENC   =     -2750.12703689
  -exchange      EXHF   =         0.00000000
  -V(xc)+E(xc)   XCENC  =       199.06568993
  PAW double counting   =      6537.37067607    -7532.05940680
  entropy T*S    EENTRO =         0.00000000
  eigenvalues    EBANDS =      -335.97521997
  atomic energy  EATOM  =      8309.57314779
  Solvation  Ediel_sol  =         0.00000000
  ---------------------------------------------------
  free energy    TOTEN  =       -15.65307696 eV

  energy without entropy =      -15.65307696  energy(sigma->0) =      -15.65307696


--------------------------------------------------------------------------------------------------------




--------------------------------------- Iteration      1(   4)  ---------------------------------------


     EDDAV:  cpu time    4.6527: real time    4.6820
 BZINTS: Fermi energy:  3.517674; 62.000000 electrons
         Band energy:-335.989109;  BLOECHL correction: -0.050672
       DOS:  cpu time    0.0852: real time    0.0856
    --------------------------------------------
      LOOP:  cpu time    4.7379: real time    4.7676

 eigenvalue-minimisations  : 16176
 total energy-change (2. order) :-0.1388922E-01  (-0.1388115E-01)
 number of electron      62.0000000 magnetization 
 augmentation part       62.0000000 magnetization 

 Free energy of the ion-electron system (eV)
  ---------------------------------------------------
  alpha Z        PSCENC =       264.58872817
  Ewald energy   TEWEN  =     -4708.08965526
  -Hartree energ DENC   =     -2750.12703689
  -exchange      EXHF   =         0.00000000
  -V(xc)+E(xc)   XCENC  =       199.06568993
  PAW double counting   =      6537.37067607    -7532.05940680
  entropy T*S    EENTRO =         0.00000000
  eigenvalues    EBANDS =      -335.98910919
  atomic energy  EATOM  =      8309.57314779
  Solvation  Ediel_sol  =         0.00000000
  ---------------------------------------------------
  free energy    TOTEN  =       -15.66696617 eV

  energy without entropy =      -15.66696617  energy(sigma->0) =      -15.66696617


--------------------------------------------------------------------------------------------------------




--------------------------------------- Iteration      1(   5)  ---------------------------------------


     EDDAV:  cpu time    4.1321: real time    4.1539
 BZINTS: Fermi energy:  3.517674; 62.000000 electrons
         Band energy:-335.989115;  BLOECHL correction: -0.050672
       DOS:  cpu time    0.0904: real time    0.0907
    CHARGE:  cpu time    0.0456: real time    0.0462
    MIXING:  cpu time    0.0007: real time    0.0013
    --------------------------------------------
      LOOP:  cpu time    4.2687: real time    4.2921

 eigenvalue-minimisations  : 13728
 total energy-change (2. order) :-0.5667855E-05  (-0.5657143E-05)
 number of electron      62.0000105 magnetization 
 augmentation part       30.2538160 magnetization 

 Broyden mixing:
  rms(total) = 0.66165E+00    rms(broyden)= 0.66164E+00
  rms(prec ) = 0.86749E+00
  weight for this iteration     100.00

 Free energy of the ion-electron system (eV)
  ---------------------------------------------------
  alpha Z        PSCENC =       264.58872817
  Ewald energy   TEWEN  =     -4708.08965526
  -Hartree energ DENC   =     -2750.12703689
  -exchange      EXHF   =         0.00000000
  -V(xc)+E(xc)   XCENC  =       199.06568993
  PAW double counting   =      6537.37067607    -7532.05940680
  entropy T*S    EENTRO =         0.00000000
  eigenvalues    EBANDS =      -335.98911485
  atomic energy  EATOM  =      8309.57314779
  Solvation  Ediel_sol  =         0.00000000
  ---------------------------------------------------
  free energy    TOTEN  =       -15.66697184 eV

  energy without entropy =      -15.66697184  energy(sigma->0) =      -15.66697184


--------------------------------------------------------------------------------------------------------




--------------------------------------- Iteration      1(   6)  ---------------------------------------


    POTLOK:  cpu time    0.4804: real time    0.4822
    SETDIJ:  cpu time    0.1056: real time    0.1059
     EDDAV:  cpu time    2.8639: real time    2.8763
 BZINTS: Fermi energy:  3.499653; 62.000000 electrons
         Band energy:-361.089554;  BLOECHL correction: -0.050464
       DOS:  cpu time    0.0898: real time    0.0901
    CHARGE:  cpu time    0.0442: real time    0.0444
    MIXING:  cpu time    0.0007: real time    0.0009
    --------------------------------------------
      LOOP:  cpu time    3.5846: real time    3.5998

 eigenvalue-minimisations  : 13824
 total energy-change (2. order) : 0.4308688E+00  (-0.2681285E+00)
 number of electron      62.0000107 magnetization 
 augmentation part       30.4929369 magnetization 

 Broyden mixing:
  rms(total) = 0.45088E+00    rms(broyden)= 0.45088E+00
  rms(prec ) = 0.47618E+00
  weight for this iteration     100.00

 eigenvalues of (default mixing * dielectric matrix)
  average eigenvalue GAMMA=   1.5423
  1.5423

 Free energy of the ion-electron system (eV)
  ---------------------------------------------------
  alpha Z        PSCENC =       264.58872817
  Ewald energy   TEWEN  =     -4708.08965526
  -Hartree energ DENC   =     -2729.74170714
  -exchange      EXHF   =         0.00000000
  -V(xc)+E(xc)   XCENC  =       198.63875969
  PAW double counting   =      6652.22498851    -7641.34081032
  entropy T*S    EENTRO =         0.00000000
  eigenvalues    EBANDS =      -361.08955446
  atomic energy  EATOM  =      8309.57314779
  Solvation  Ediel_sol  =         0.00000000
  ---------------------------------------------------
  free energy    TOTEN  =       -15.23610302 eV

  energy without entropy =      -15.23610302  energy(sigma->0) =      -15.23610302


--------------------------------------------------------------------------------------------------------




--------------------------------------- Iteration      1(   7)  ---------------------------------------


    POTLOK:  cpu time    0.0061: real time    0.0066
    SETDIJ:  cpu time    0.0017: real time    0.0017
     EDDAV:  cpu time    2.3233: real time    2.3336
 BZINTS: Fermi energy:  3.511046; 62.000000 electrons
         Band energy:-358.473784;  BLOECHL correction: -0.050804
       DOS:  cpu time    0.0925: real time    0.0928
    CHARGE:  cpu time    0.0443: real time    0.0445
    MIXING:  cpu time    0.0003: real time    0.0003
    --------------------------------------------
      LOOP:  cpu time    2.4682: real time    2.4795

 eigenvalue-minimisations  : 12144
 total energy-change (2. order) : 0.2699988E-01  (-0.1371814E-01)
 number of electron      62.0000106 magnetization 
 augmentation part       30.4544659 magnetization 

 Broyden mixing:
  rms(total) = 0.19774E+00    rms(broyden)= 0.19774E+00
  rms(prec ) = 0.21331E+00
  weight for this iteration     100.00

 eigenvalues of (default mixing * dielectric matrix)
  average eigenvalue GAMMA=   1.6029
  0.8740  2.3319

 Free energy of the ion-electron system (eV)
  ---------------------------------------------------
  alpha Z        PSCENC =       264.58872817
  Ewald energy   TEWEN  =     -4708.08965526
  -Hartree energ DENC   =     -2728.55753709
  -exchange      EXHF   =         0.00000000
  -V(xc)+E(xc)   XCENC  =       198.76014892
  PAW double counting   =      6777.93801090    -7770.94816285
  entropy T*S    EENTRO =         0.00000000
  eigenvalues    EBANDS =      -358.47378372
  atomic energy  EATOM  =      8309.57314779
  Solvation  Ediel_sol  =         0.00000000
  ---------------------------------------------------
  free energy    TOTEN  =       -15.20910314 eV

  energy without entropy =      -15.20910314  energy(sigma->0) =      -15.20910314


--------------------------------------------------------------------------------------------------------




--------------------------------------- Iteration      1(   8)  ---------------------------------------


    POTLOK:  cpu time    0.0054: real time    0.0058
    SETDIJ:  cpu time    0.0017: real time    0.0017
     EDDAV:  cpu time    3.2527: real time    3.2665
 BZINTS: Fermi energy:  3.500814; 62.000000 electrons
         Band energy:-360.822295;  BLOECHL correction: -0.050666
       DOS:  cpu time    0.0928: real time    0.0931
    CHARGE:  cpu time    0.0443: real time    0.0445
    MIXING:  cpu time    0.0004: real time    0.0004
    --------------------------------------------
      LOOP:  cpu time    3.3973: real time    3.4119

 eigenvalue-minimisations  : 15216
 total energy-change (2. order) : 0.5012053E-02  (-0.1801062E-02)
 number of electron      62.0000106 magnetization 
 augmentation part       30.4580442 magnetization 

 Broyden mixing:
  rms(total) = 0.29873E-01    rms(broyden)= 0.29873E-01
  rms(prec ) = 0.36449E-01
  weight for this iteration     100.00

 eigenvalues of (default mixing * dielectric matrix)
  average eigenvalue GAMMA=   1.5155
  2.4182  0.8870  1.2412

 Free energy of the ion-electron system (eV)
  ---------------------------------------------------
  alpha Z        PSCENC =       264.58872817
  Ewald energy   TEWEN  =     -4708.08965526
  -Hartree energ DENC   =     -2724.51487474
  -exchange      EXHF   =         0.00000000
  -V(xc)+E(xc)   XCENC  =       198.70487316
  PAW double counting   =      6883.83730326    -7878.48131873
  entropy T*S    EENTRO =         0.00000000
  eigenvalues    EBANDS =      -360.82229474
  atomic energy  EATOM  =      8309.57314779
  Solvation  Ediel_sol  =         0.00000000
  ---------------------------------------------------
  free energy    TOTEN  =       -15.20409109 eV

  energy without entropy =      -15.20409109  energy(sigma->0) =      -15.20409109


--------------------------------------------------------------------------------------------------------




--------------------------------------- Iteration      1(   9)  ---------------------------------------


    POTLOK:  cpu time    0.0050: real time    0.0052
    SETDIJ:  cpu time    0.0017: real time    0.0017
     EDDAV:  cpu time    2.8530: real time    2.8651
 BZINTS: Fermi energy:  3.497983; 62.000000 electrons
         Band energy:-361.135292;  BLOECHL correction: -0.050611
       DOS:  cpu time    0.0930: real time    0.0933
    CHARGE:  cpu time    0.0443: real time    0.0445
    MIXING:  cpu time    0.0004: real time    0.0004
    --------------------------------------------
      LOOP:  cpu time    2.9973: real time    3.0101

 eigenvalue-minimisations  : 13920
 total energy-change (2. order) :-0.2252510E-04  (-0.2209108E-03)
 number of electron      62.0000106 magnetization 
 augmentation part       30.4560018 magnetization 

 Broyden mixing:
  rms(total) = 0.62406E-02    rms(broyden)= 0.62406E-02
  rms(prec ) = 0.91061E-02
  weight for this iteration     100.00

 eigenvalues of (default mixing * dielectric matrix)
  average eigenvalue GAMMA=   1.7085
  0.8942  1.1757  2.3821  2.3821

 Free energy of the ion-electron system (eV)
  ---------------------------------------------------
  alpha Z        PSCENC =       264.58872817
  Ewald energy   TEWEN  =     -4708.08965526
  -Hartree energ DENC   =     -2723.83145935
  -exchange      EXHF   =         0.00000000
  -V(xc)+E(xc)   XCENC  =       198.68193317
  PAW double counting   =      6900.20745944    -7895.19897600
  entropy T*S    EENTRO =         0.00000000
  eigenvalues    EBANDS =      -361.13529158
  atomic energy  EATOM  =      8309.57314779
  Solvation  Ediel_sol  =         0.00000000
  ---------------------------------------------------
  free energy    TOTEN  =       -15.20411361 eV

  energy without entropy =      -15.20411361  energy(sigma->0) =      -15.20411361


--------------------------------------------------------------------------------------------------------




--------------------------------------- Iteration      1(  10)  ---------------------------------------


    POTLOK:  cpu time    0.4790: real time    0.4809
    SETDIJ:  cpu time    0.1295: real time    0.1299
     EDDAV:  cpu time    6.1974: real time    6.2286
 BZINTS: Fermi energy:  3.499480; 62.000000 electrons
         Band energy:-361.150964;  BLOECHL correction: -0.050625
       DOS:  cpu time    0.1020: real time    0.1024
    --------------------------------------------
      LOOP:  cpu time    6.9079: real time    6.9418

 eigenvalue-minimisations  : 14256
 total energy-change (2. order) :-0.8941964E-04  (-0.2530471E-04)
 number of electron      62.0000106 magnetization 
 augmentation part       30.4560018 magnetization 

 Free energy of the ion-electron system (eV)
  ---------------------------------------------------
  alpha Z        PSCENC =       264.58872817
  Ewald energy   TEWEN  =     -4708.08965526
  -Hartree energ DENC   =     -2723.77723392
  -exchange      EXHF   =         0.00000000
  -V(xc)+E(xc)   XCENC  =       198.67511884
  PAW double counting   =      6895.69168943    -7890.71503368
  entropy T*S    EENTRO =         0.00000000
  eigenvalues    EBANDS =      -361.15096441
  atomic energy  EATOM  =      8309.57314779
  Solvation  Ediel_sol  =         0.00000000
  ---------------------------------------------------
  free energy    TOTEN  =       -15.20420303 eV

  energy without entropy =      -15.20420303  energy(sigma->0) =      -15.20420303


--------------------------------------------------------------------------------------------------------




 average (electrostatic) potential at core
  the test charge radii are     1.0314  0.9521  1.0808
  (the norm of the test charge is              1.0000)
       1 -67.3154       2 -67.3154       3 -36.4401       4 -36.4401       5 -55.6854
       6 -55.6854
 
 
 
 E-fermi :   3.4995     XC(G=0):  -9.6763     alpha+bet : -7.9466


 k-point     1 :       0.0000    0.0000    0.0000
  band No.  band energies     occupation 
      1     -11.7313      2.00000
      2     -11.6904      2.00000
      3     -11.6887      2.00000
      4     -11.6861      2.00000
      5     -11.6861      2.00000
      6     -11.6830      2.00000
      7     -11.6802      2.00000
      8     -11.6761      2.00000
      9     -11.6761      2.00000
     10     -11.6719      2.00000
     11     -10.6869      2.00000
     12      -9.8927      2.00000
     13      -4.1975      2.00000
     14      -4.1665      2.00000
     15      -4.1350      2.00000
     16      -4.1350      2.00000
     17      -4.1117      2.00000
     18      -3.9229      2.00000
     19      -3.9229      2.00000
     20      -3.8383      2.00000
     21      -3.8188      2.00000
     22      -3.7072      2.00000
     23      -2.2966      2.00000
     24      -2.1577      2.00000
     25      -1.7335      2.00000
     26      -1.0419      2.00000
     27      -1.0419      2.00000
     28       0.6454      2.00000
     29       1.0084      2.00000
     30       1.0084      2.00000
     31       1.9848      2.00000
     32       5.9983      0.00000
     33       6.0560      0.00000
     34       6.0560      0.00000
     35       6.0778      0.00000
     36       6.0778      0.00000
     37       6.2660      0.00000
     38       7.0762      0.00000
     39       7.3843      0.00000
     40       7.3843      0.00000
     41       8.0498      0.00000
     42       9.3719      0.00000
     43       9.7339      0.00000
     44      10.7004      0.00000
     45      10.8846      0.00000
     46      11.6733      0.00000
     47      11.6733      0.00000
     48      12.2794      0.00000

 k-point     2 :       0.0909    0.0000    0.0000
  band No.  band energies     occupation 
      1     -11.7303      2.00000
      2     -11.6914      2.00000
      3     -11.6883      2.00000
      4     -11.6861      2.00000
      5     -11.6859      2.00000
      6     -11.6835      2.00000
      7     -11.6802      2.00000
      8     -11.6761      2.00000
      9     -11.6757      2.00000
     10     -11.6721      2.00000
     11     -10.6630      2.00000
     12      -9.8979      2.00000
     13      -4.1922      2.00000
     14      -4.1553      2.00000
     15      -4.1483      2.00000
     16      -4.1366      2.00000
     17      -4.1003      2.00000
     18      -3.9276      2.00000
     19      -3.9078      2.00000
     20      -3.8445      2.00000
     21      -3.8216      2.00000
     22      -3.7203      2.00000
     23      -2.2919      2.00000
     24      -2.1823      2.00000
     25      -2.0487      2.00000
     26      -0.9888      2.00000
     27      -0.8510      2.00000
     28       0.5961      2.00000
     29       0.9947      2.00000
     30       1.0458      2.00000
     31       2.2349      2.00000
     32       5.0864      0.00000
     33       5.8375      0.00000
     34       5.8905      0.00000
     35       6.0738      0.00000
     36       6.3297      0.00000
     37       6.9605      0.00000
     38       6.9730      0.00000
     39       7.2596      0.00000
     40       7.4796      0.00000
     41       8.2086      0.00000
     42       9.6430      0.00000
     43      10.0609      0.00000
     44      10.6445      0.00000
     45      10.9801      0.00000
     46      11.3405      0.00000
     47      11.8421      0.00000
     48      12.5325      0.00000

 k-point     3 :       0.1818    0.0000    0.0000
  band No.  band energies     occupation 
      1     -11.7274      2.00000
      2     -11.6942      2.00000
      3     -11.6871      2.00000
      4     -11.6861      2.00000
      5     -11.6854      2.00000
      6     -11.6846      2.00000
      7     -11.6802      2.00000
      8     -11.6764      2.00000
      9     -11.6751      2.00000
     10     -11.6727      2.00000
     11     -10.5942      2.00000
     12      -9.9162      2.00000
     13      -4.1879      2.00000
     14      -4.1755      2.00000
     15      -4.1332      2.00000
     16      -4.1174      2.00000
     17      -4.0747      2.00000
     18      -3.9417      2.00000
     19      -3.8723      2.00000
     20      -3.8630      2.00000
     21      -3.8296      2.00000
     22      -3.7558      2.00000
     23      -2.5626      2.00000
     24      -2.3893      2.00000
     25      -2.1318      2.00000
     26      -0.8352      2.00000
     27      -0.6462      2.00000
     28       0.4870      2.00000
     29       0.9442      2.00000
     30       1.1625      2.00000
     31       2.8744      2.01925
     32       4.1582      0.00000
     33       5.3795      0.00000
     34       5.4993      0.00000
     35       6.0630      0.00000
     36       6.6524      0.00000
     37       6.7619      0.00000
     38       7.0376      0.00000
     39       7.4821      0.00000
     40       7.7196      0.00000
     41       8.6803      0.00000
     42      10.3724      0.00000
     43      10.4822      0.00000
     44      10.5438      0.00000
     45      10.9727      0.00000
[...]
     43      10.4047      0.00000
     44      10.8547      0.00000
     45      12.0937      0.00000
     46      12.6757      0.00000
     47      12.9786      0.00000
     48      14.7366      0.00000

 k-point   101 :       0.3636    0.2727    0.4444
  band No.  band energies     occupation 
      1     -11.6974      2.00000
      2     -11.6962      2.00000
      3     -11.6861      2.00000
      4     -11.6849      2.00000
      5     -11.6823      2.00000
      6     -11.6819      2.00000
      7     -11.6801      2.00000
      8     -11.6779      2.00000
      9     -11.6770      2.00000
     10     -11.6766      2.00000
     11     -10.1816      2.00000
     12     -10.0536      2.00000
     13      -4.4051      2.00000
     14      -4.2038      2.00000
     15      -4.0500      2.00000
     16      -4.0271      2.00000
     17      -4.0156      2.00000
     18      -3.9174      2.00000
     19      -3.8953      2.00000
     20      -3.8889      2.00000
     21      -3.8669      2.00000
     22      -3.8355      2.00000
     23      -3.3819      2.00000
     24      -3.2432      2.00000
     25      -2.1099      2.00000
     26      -0.9184      2.00000
     27      -0.4258      2.00000
     28       0.2339      2.00000
     29       1.4456      2.00000
     30       2.0212      2.00000
     31       3.1766      2.00029
     32       3.8735     -0.04482
     33       4.9306      0.00000
     34       5.1380      0.00000
     35       5.2535      0.00000
     36       5.3605      0.00000
     37       7.4769      0.00000
     38       7.8421      0.00000
     39       8.4738      0.00000
     40       8.9495      0.00000
     41       9.3355      0.00000
     42       9.9494      0.00000
     43      11.0617      0.00000
     44      11.2726      0.00000
     45      11.9304      0.00000
     46      12.3713      0.00000
     47      13.3201      0.00000
     48      14.2066      0.00000

 k-point   102 :       0.4545    0.2727    0.4444
  band No.  band energies     occupation 
      1     -11.6978      2.00000
      2     -11.6975      2.00000
      3     -11.6853      2.00000
      4     -11.6841      2.00000
      5     -11.6835      2.00000
      6     -11.6827      2.00000
      7     -11.6788      2.00000
      8     -11.6780      2.00000
      9     -11.6772      2.00000
     10     -11.6770      2.00000
     11     -10.1162      2.00000
     12     -10.0721      2.00000
     13      -4.3373      2.00000
     14      -4.2403      2.00000
     15      -4.0656      2.00000
     16      -4.0393      2.00000
     17      -3.9831      2.00000
     18      -3.9300      2.00000
     19      -3.9120      2.00000
     20      -3.8978      2.00000
     21      -3.8678      2.00000
     22      -3.8473      2.00000
     23      -3.3755      2.00000
     24      -3.3088      2.00000
     25      -1.8607      2.00000
     26      -1.4436      2.00000
     27      -0.3051      2.00000
     28      -0.0494      2.00000
     29       1.6173      2.00000
     30       1.8261      2.00000
     31       3.4061      1.39491
     32       3.6958      0.20698
     33       5.1201      0.00000
     34       5.2158      0.00000
     35       5.5003      0.00000
     36       5.6075      0.00000
     37       7.3863      0.00000
     38       7.5243      0.00000
     39       8.8586      0.00000
     40       8.9983      0.00000
     41       9.5201      0.00000
     42      10.4093      0.00000
     43      10.5931      0.00000
     44      11.1979      0.00000
     45      12.2904      0.00000
     46      12.7192      0.00000
     47      13.5827      0.00000
     48      13.9167      0.00000

 k-point   103 :       0.3636    0.3636    0.4444
  band No.  band energies     occupation 
      1     -11.6992      2.00000
      2     -11.6986      2.00000
      3     -11.6865      2.00000
      4     -11.6840      2.00000
      5     -11.6832      2.00000
      6     -11.6809      2.00000
      7     -11.6791      2.00000
      8     -11.6788      2.00000
      9     -11.6778      2.00000
     10     -11.6767      2.00000
     11     -10.1200      2.00000
     12     -10.0381      2.00000
     13      -4.3682      2.00000
     14      -4.1491      2.00000
     15      -4.1125      2.00000
     16      -4.0248      2.00000
     17      -4.0152      2.00000
     18      -3.9009      2.00000
     19      -3.8938      2.00000
     20      -3.8786      2.00000
     21      -3.8691      2.00000
     22      -3.8417      2.00000
     23      -3.2068      2.00000
     24      -3.1634      2.00000
     25      -2.3844      2.00000
     26      -1.4269      2.00000
     27      -0.7125      2.00000
     28      -0.1254      2.00000
     29       1.5418      2.00000
     30       1.9479      2.00000
     31       3.5128      0.75475
     32       4.2558      0.00000
     33       5.1938      0.00000
     34       5.3839      0.00000
     35       5.4985      0.00000
     36       5.5376      0.00000
     37       7.5705      0.00000
     38       7.6334      0.00000
     39       8.9474      0.00000
     40       9.0345      0.00000
     41       9.1408      0.00000
     42      10.0199      0.00000
     43      11.3773      0.00000
     44      11.3988      0.00000
     45      11.8447      0.00000
     46      12.3264      0.00000
     47      13.1013      0.00000
     48      14.3763      0.00000

 k-point   104 :       0.4545    0.3636    0.4444
  band No.  band energies     occupation 
      1     -11.7004      2.00000
      2     -11.7001      2.00000
      3     -11.6863      2.00000
      4     -11.6853      2.00000
      5     -11.6820      2.00000
      6     -11.6811      2.00000
      7     -11.6787      2.00000
      8     -11.6783      2.00000
      9     -11.6780      2.00000
     10     -11.6772      2.00000
     11     -10.0699      2.00000
     12     -10.0417      2.00000
     13      -4.2939      2.00000
     14      -4.2015      2.00000
     15      -4.0888      2.00000
     16      -4.0458      2.00000
     17      -3.9965      2.00000
     18      -3.9518      2.00000
     19      -3.8798      2.00000
     20      -3.8704      2.00000
     21      -3.8610      2.00000
     22      -3.8493      2.00000
     23      -3.1260      2.00000
     24      -3.1159      2.00000
     25      -2.2937      2.00000
     26      -1.9175      2.00000
     27      -0.7157      2.00000
     28      -0.4860      2.00000
     29       1.6799      2.00000
     30       1.8237      2.00000
     31       3.8704     -0.09421
     32       4.1757      0.00000
     33       5.3672      0.00000
     34       5.4855      0.00000
     35       5.6951      0.00000
     36       5.7349      0.00000
     37       7.4661      0.00000
     38       7.5659      0.00000
     39       8.9397      0.00000
     40       9.0393      0.00000
     41       9.8148      0.00000
     42      10.3767      0.00000
     43      10.7853      0.00000
     44      11.0866      0.00000
     45      12.5112      0.00000
     46      12.5765      0.00000
     47      13.2619      0.00000
     48      13.9230      0.00000

 k-point   105 :       0.4545    0.4545    0.4444
  band No.  band energies     occupation 
      1     -11.7020      2.00000
      2     -11.7018      2.00000
      3     -11.6867      2.00000
      4     -11.6864      2.00000
      5     -11.6806      2.00000
      6     -11.6800      2.00000
      7     -11.6793      2.00000
      8     -11.6788      2.00000
      9     -11.6777      2.00000
     10     -11.6773      2.00000
     11     -10.0375      2.00000
     12     -10.0278      2.00000
     13      -4.2379      2.00000
     14      -4.1962      2.00000
     15      -4.0762      2.00000
     16      -4.0393      2.00000
     17      -4.0237      2.00000
     18      -3.9925      2.00000
     19      -3.8617      2.00000
     20      -3.8606      2.00000
     21      -3.8586      2.00000
     22      -3.8527      2.00000
     23      -2.9331      2.00000
     24      -2.8648      2.00000
     25      -2.5210      2.00000
     26      -2.3072      2.00000
     27      -0.9135      2.00000
     28      -0.8172      2.00000
     29       1.7473      2.00000
     30       1.7980      2.00000
     31       4.2455      0.00000
     32       4.3975      0.00000
     33       5.3480      0.00000
     34       5.4552      0.00000
     35       5.8291      0.00000
     36       5.8567      0.00000
     37       7.5731      0.00000
     38       7.6515      0.00000
     39       9.1504      0.00000
     40       9.3398      0.00000
     41      10.1510      0.00000
     42      10.3513      0.00000
     43      10.5648      0.00000
     44      10.7935      0.00000
     45      12.7289      0.00000
     46      12.8584      0.00000
     47      13.3967      0.00000
     48      13.6305      0.00000


--------------------------------------------------------------------------------------------------------


 soft charge-density along one line, spin component           1
         0         1         2         3         4         5         6         7         8         9
 total charge-density along one line
 
 pseudopotential strength for first ion, spin component:           1
-14.800  -0.000  -0.000   0.000   0.000   2.507   0.000   0.000
 -0.000 -14.797   0.000  -0.000  -0.000   0.000   2.505  -0.000
 -0.000   0.000 -14.792  -0.000  -0.000   0.000  -0.000   2.503
  0.000  -0.000  -0.000 -14.797  -0.000  -0.000   0.000   0.000
  0.000  -0.000  -0.000  -0.000 -14.801  -0.000   0.000   0.000
  2.507   0.000   0.000  -0.000  -0.000   3.761  -0.000   0.000
  0.000   2.505  -0.000   0.000   0.000  -0.000   3.762   0.000
  0.000  -0.000   2.503   0.000   0.000   0.000   0.000   3.763
 -0.000   0.000   0.000   2.505   0.000   0.000   0.000  -0.000
 -0.000   0.000   0.000   0.000   2.508  -0.000  -0.000  -0.000
 -0.000   0.000  -0.000  -0.000   0.000   0.000  -0.000  -0.001
  0.000  -0.000  -0.001   0.000  -0.000  -0.000   0.000   0.001
  0.000   0.003  -0.000   0.000  -0.000  -0.000  -0.001   0.000
  0.000  -0.000   0.004  -0.000   0.000  -0.000   0.000  -0.001
 -0.000   0.000   0.000   0.003  -0.000  -0.000  -0.000   0.000
 -0.000  -0.003   0.000  -0.000   0.000   0.000  -0.002  -0.000
 -0.000   0.000  -0.004  -0.000  -0.000   0.000   0.000  -0.002
 -0.000  -0.000   0.000  -0.003   0.000   0.000   0.000  -0.000
 total augmentation occupancy for first ion, spin component:           1
  2.000   0.000   0.000   0.000   0.000   0.001   0.000   0.000   0.000  -0.000   0.000   0.000   0.000   0.000   0.000   0.000
  0.000   2.000   0.000   0.000   0.000   0.000   0.003   0.000   0.000   0.000   0.000   0.000  -0.002   0.000   0.000  -0.001
  0.000   0.000   2.000   0.000   0.000   0.000   0.000   0.003   0.000   0.000  -0.002   0.000   0.000   0.000  -0.000  -0.000
  0.000   0.000   0.000   2.000   0.000   0.000   0.000   0.000   0.003   0.000  -0.000   0.000   0.000   0.000  -0.002   0.000
  0.000   0.000   0.000   0.000   2.000   0.000  -0.000   0.000   0.000   0.002   0.000   0.000   0.000   0.000   0.000   0.000
  0.001   0.000   0.000   0.000   0.000   0.007  -0.000   0.000   0.000  -0.000   0.000   0.000   0.000   0.000   0.000   0.000
  0.000   0.003   0.000   0.000   0.000   0.000   0.006   0.000   0.000  -0.000   0.000   0.000  -0.023   0.000   0.000  -0.000
  0.000   0.000   0.003   0.000   0.000   0.000   0.000   0.015   0.000   0.000  -0.005   0.001  -0.000   0.024   0.000   0.000
  0.000   0.000   0.000   0.003   0.000   0.000   0.000   0.000   0.006   0.000   0.000   0.000   0.000   0.000  -0.023   0.000
 -0.000   0.000   0.000   0.000   0.002  -0.000  -0.000   0.000   0.000   0.006   0.000   0.000  -0.000   0.000   0.000   0.000
  0.000   0.000  -0.002   0.000   0.000   0.000  -0.000  -0.005  -0.000   0.000   1.978  -0.002  -0.000  -0.048   0.000   0.000
  0.000  -0.000   0.000   0.000   0.000   0.000   0.000   0.001   0.000   0.000  -0.002   0.001   0.000   0.001   0.000  -0.000
  0.000  -0.002   0.000   0.000   0.000   0.000  -0.023   0.000   0.000   0.000   0.000  -0.000   0.342   0.000   0.000   0.004
  0.000   0.000   0.000   0.000   0.000   0.000   0.000   0.024   0.000   0.000  -0.048   0.001   0.000   0.406   0.000   0.000
 -0.000   0.000  -0.000  -0.002   0.000   0.000  -0.000   0.000  -0.023   0.000   0.000   0.000   0.000   0.000   0.342   0.000
  0.000  -0.001  -0.000   0.000   0.000   0.000  -0.000   0.000   0.000   0.000   0.000   0.000   0.004  -0.000   0.000   0.000
  0.000   0.000  -0.000   0.000   0.000   0.000   0.000   0.000   0.000   0.000  -0.001  -0.000   0.000   0.006   0.000   0.000
 -0.000   0.000   0.000  -0.001  -0.000  -0.000   0.000   0.000  -0.000   0.000   0.000   0.000   0.000   0.000   0.004   0.000


------------------------ aborting loop because EDIFF is reached ----------------------------------------


 


 total charge     
 
# of ion       s       p       d       tot
------------------------------------------
    1        1.178   0.308   9.935  11.421
    2        1.178   0.308   9.935  11.421
    3        0.599   0.300   9.757  10.657
    4        0.599   0.300   9.757  10.657
    5        1.506   2.220   0.034   3.760
    6        1.506   2.220   0.034   3.760
--------------------------------------------------
tot          6.566   5.659  39.452  51.676
 
    CHARGE:  cpu time    0.6075: real time    0.6100
    FORLOC:  cpu time    0.0256: real time    0.0518
    FORNL :  cpu time    0.4491: real time    0.9060
    STRESS:  cpu time    3.1599: real time    3.1829
    FORCOR:  cpu time    0.0046: real time    0.0050
    FORHAR:  cpu time    0.0012: real time    0.0016
    MIXING:  cpu time    0.0005: real time    0.0005
    OFIELD:  cpu time    0.0001: real time    0.0002

  FORCE on cell =-STRESS in cart. coord.  units (eV):
  Direction    XX          YY          ZZ          XY          YZ          ZX
  --------------------------------------------------------------------------------------
  Alpha Z   264.58873   264.58873   264.58873
  Ewald   -1410.00360 -1410.00360 -1888.08439    -0.00000     0.00000     0.00000
  Hartree  1048.93790  1048.93790   625.87045    -0.00000    -0.00000    -0.00000
  E(xc)    -344.32701  -344.32701  -344.33222     0.00000    -0.00000     0.00000
  Local    -314.82328  -314.82328   583.17603     0.00000     0.00000     0.00000
  n-local    38.92828    36.55020    39.31634     0.66445    -0.15648     0.37526
  augment   313.21108   313.21108   313.46494    -0.00000    -0.00000     0.00000
  Kinetic   396.73253   412.73218   406.14213     5.16245     1.46965     0.90687
  Fock        0.00000     0.00000     0.00000     0.00000     0.00000     0.00000
  -------------------------------------------------------------------------------------
  Total       0.05541     0.05541     0.14200     0.00000     0.00000     0.00000
  in kB       0.64458     0.64458     1.65185     0.00000     0.00000     0.00000
  external pressure =        0.98 kB  Pullay stress =        0.00 kB


 VOLUME and BASIS-vectors are now :
 -----------------------------------------------------------------------------
  energy-cutoff  :      500.00
  volume of cell :      137.73
      direct lattice vectors                 reciprocal lattice vectors
     4.711774081  0.000000000  0.000000000     0.212234284  0.000000000  0.000000000
     0.000000000  4.711774081  0.000000000     0.000000000  0.212234284  0.000000000
     0.000000000  0.000000000  6.203973577     0.000000000  0.000000000  0.161187018

  length of vectors
     4.711774081  4.711774081  6.203973577     0.212234284  0.212234284  0.161187018


 FORCES acting on ions
    electron-ion (+dipol)            ewald-force                    non-local-force                 convergence-correction
 -----------------------------------------------------------------------------------------------
   0.113E-12 0.117E-11 -.278E+03   0.375E-14 0.325E-14 0.275E+03   0.000E+00 0.867E-18 0.298E+01   -.729E-13 0.218E-12 0.217E-01
   0.232E-12 -.877E-12 0.278E+03   -.946E-15 -.513E-14 -.275E+03   0.000E+00 -.867E-18 -.298E+01   -.169E-13 -.733E-13 -.217E-01
   0.616E-13 -.859E-13 0.500E-12   0.738E-14 -.197E-13 0.000E+00   -.173E-17 0.000E+00 0.000E+00   0.209E-12 -.122E-12 0.192E-13
   0.198E-12 -.679E-11 -.448E-12   -.848E-14 0.136E-13 0.142E-13   0.347E-17 0.000E+00 0.000E+00   -.247E-12 0.312E-12 -.980E-13
   0.337E-13 -.124E-12 -.145E+03   -.612E-15 -.920E-14 0.146E+03   0.000E+00 -.347E-17 -.742E+00   -.597E-13 -.332E-13 -.233E-02
   0.201E-13 0.183E-12 0.145E+03   -.126E-14 0.162E-13 -.146E+03   0.000E+00 -.347E-17 0.742E+00   0.846E-13 -.134E-14 0.233E-02
 -----------------------------------------------------------------------------------------------
   0.658E-12 -.652E-11 0.290E-11   -.156E-15 -.929E-15 0.284E-13   0.173E-17 -.694E-17 0.000E+00   -.103E-12 0.300E-12 0.365E-13
 
 
 POSITION                                       TOTAL-FORCE (eV/Angst)
 -----------------------------------------------------------------------------------
      0.00000      2.35589      1.97220         0.000000     -0.000000      0.000422
      2.35589      0.00000      4.23178         0.000000     -0.000000     -0.000422
      0.00000      0.00000      0.00000         0.000000     -0.000000      0.000000
      2.35589      2.35589      0.00000         0.000000      0.000000      0.000000
      2.35589      0.00000      1.32715         0.000000      0.000000     -0.014817
      0.00000      2.35589      4.87682         0.000000      0.000000      0.014817
 -----------------------------------------------------------------------------------
    total drift:                                0.000000     -0.000000      0.000000


--------------------------------------------------------------------------------------------------------



  FREE ENERGIE OF THE ION-ELECTRON SYSTEM (eV)
  ---------------------------------------------------
  free  energy   TOTEN  =       -15.20420303 eV

  energy  without entropy=      -15.20420303  energy(sigma->0) =      -15.20420303
 


--------------------------------------------------------------------------------------------------------


    POTLOK:  cpu time    0.0073: real time    0.0075


--------------------------------------------------------------------------------------------------------


     LOOP+:  cpu time   45.0763: real time   45.9278
    4ORBIT:  cpu time    0.0000: real time    0.0000
 


 total charge     
 
# of ion       s       p       d       tot
------------------------------------------
    1        1.178   0.308   9.935  11.421
    2        1.178   0.308   9.935  11.421
    3        0.599   0.300   9.757  10.657
    4        0.599   0.300   9.757  10.657
    5        1.506   2.220   0.034   3.760
    6        1.506   2.220   0.034   3.760
--------------------------------------------------
tot          6.566   5.659  39.452  51.676
 
 BZINTS: Fermi energy:  3.499480; 62.000000 electrons
         Band energy:-361.150964;  BLOECHL correction: -0.050625

 total amount of memory used by VASP MPI-rank0   201163. kBytes
=======================================================================

   base      :      30000. kBytes
   nonl-proj :     161459. kBytes
   fftplans  :        474. kBytes
   grid      :       2928. kBytes
   one-center:         93. kBytes
   wavefun   :       6209. kBytes
 
  
  
 General timing and accounting informations for this job:
 ========================================================
  
                  Total CPU time used (sec):       63.720
                            User time (sec):       62.129
                          System time (sec):        1.591
                         Elapsed time (sec):       70.254
  
                   Maximum memory used (kb):      348032.
                   Average memory used (kb):           0.
  
                          Minor page faults:        31126
                          Major page faults:            0
                 Voluntary context switches:         3458
