<?xml version="1.0" encoding="ISO-8859-1"?>
<modeling>
 <generator>
  <i name="program" type="string">vasp </i>
  <i name="version" type="string">5.2.2  </i>
  <i name="subversion" type="string">15Apr09 complex  serial </i>
  <i name="platform" type="string">LinuxIFC </i>
  <i name="date" type="string">2016 10 06 </i>
  <i name="time" type="string">15:55:28 </i>
 </generator>
 <incar>
  <i type="int" name="ISTART">     0</i>
  <i type="string" name="PREC">accurate</i>
  <i type="int" name="ICHARG">     2</i>
  <i name="EDIFF">      0.00000100</i>
  <i name="ENCUT">    400.00000000</i>
  <i type="int" name="NBANDS">     6</i>
  <i type="int" name="ISMEAR">    -5</i>
  <i type="logical" name="LPEAD"> F  </i>
  <i type="logical" name="LCALCPOL"> F  </i>
  <i type="logical" name="LCALCEPS"> F  </i>
  <v name="EFIELD_PEAD">      0.00000000      0.00000000      0.00000000</v>
  <i type="logical" name="LEFG"> F  </i>
 </incar>
 <kpoints>
  <generation param="Monkhorst-Pack">
   <v type="int" name="divisions">      15       15       11 </v>
   <v name="usershift">      0.00000000       0.00000000       0.00000000 </v>
   <v name="genvec1">      0.06666667       0.00000000       0.00000000 </v>
   <v name="genvec2">      0.00000000       0.06666667       0.00000000 </v>
   <v name="genvec3">      0.00000000       0.00000000       0.09090909 </v>
   <v name="shift">      0.00000000       0.00000000       0.00000000 </v>
  </generation>
  <varray name="kpointlist" >
   <v>       0.00000000       0.00000000       0.00000000 </v>
   <v>       0.06666667       0.00000000       0.00000000 </v>
   <v>       0.13333333       0.00000000       0.00000000 </v>
   <v>       0.20000000       0.00000000       0.00000000 </v>
   <v>       0.26666667       0.00000000       0.00000000 </v>
   <v>       0.33333333       0.00000000       0.00000000 </v>
   <v>       0.40000000       0.00000000       0.00000000 </v>
   <v>       0.46666667       0.00000000       0.00000000 </v>
   <v>       0.06666667       0.06666667       0.00000000 </v>
   <v>       0.13333333       0.06666667       0.00000000 </v>
   <v>       0.20000000       0.06666667       0.00000000 </v>
   <v>       0.26666667       0.06666667       0.00000000 </v>
   <v>       0.33333333       0.06666667       0.00000000 </v>
   <v>       0.40000000       0.06666667       0.00000000 </v>
   <v>       0.46666667       0.06666667       0.00000000 </v>
   <v>       0.13333333       0.13333333       0.00000000 </v>
   <v>       0.20000000       0.13333333       0.00000000 </v>
   <v>       0.26666667       0.13333333       0.00000000 </v>
   <v>       0.33333333       0.13333333       0.00000000 </v>
   <v>       0.40000000       0.13333333       0.00000000 </v>
   <v>       0.20000000       0.20000000       0.00000000 </v>
   <v>       0.26666667       0.20000000       0.00000000 </v>
   <v>       0.33333333       0.20000000       0.00000000 </v>
   <v>       0.40000000       0.20000000       0.00000000 </v>
   <v>       0.26666667       0.26666667       0.00000000 </v>
   <v>       0.33333333       0.26666667       0.00000000 </v>
   <v>       0.33333333       0.33333333       0.00000000 </v>
   <v>       0.00000000       0.00000000       0.09090909 </v>
   <v>       0.06666667       0.00000000       0.09090909 </v>
   <v>       0.13333333       0.00000000       0.09090909 </v>
   <v>       0.20000000       0.00000000       0.09090909 </v>
   <v>       0.26666667       0.00000000       0.09090909 </v>
   <v>       0.33333333       0.00000000       0.09090909 </v>
   <v>       0.40000000       0.00000000       0.09090909 </v>
   <v>       0.46666667       0.00000000       0.09090909 </v>
   <v>       0.06666667       0.06666667       0.09090909 </v>
   <v>       0.13333333       0.06666667       0.09090909 </v>
   <v>       0.20000000       0.06666667       0.09090909 </v>
   <v>       0.26666667       0.06666667       0.09090909 </v>
   <v>       0.33333333       0.06666667       0.09090909 </v>
   <v>       0.40000000       0.06666667       0.09090909 </v>
   <v>       0.46666667       0.06666667       0.09090909 </v>
   <v>       0.13333333       0.13333333       0.09090909 </v>
   <v>       0.20000000       0.13333333       0.09090909 </v>
   <v>       0.26666667       0.13333333       0.09090909 </v>
   <v>       0.33333333       0.13333333       0.09090909 </v>
   <v>       0.40000000       0.13333333       0.09090909 </v>
   <v>       0.20000000       0.20000000       0.09090909 </v>
   <v>       0.26666667       0.20000000       0.09090909 </v>
   <v>       0.33333333       0.20000000       0.09090909 </v>
   <v>       0.40000000       0.20000000       0.09090909 </v>
   <v>       0.26666667       0.26666667       0.09090909 </v>
   <v>       0.33333333       0.26666667       0.09090909 </v>
   <v>       0.33333333       0.33333333       0.09090909 </v>
   <v>       0.00000000       0.00000000       0.18181818 </v>
   <v>       0.06666667       0.00000000       0.18181818 </v>
   <v>       0.13333333       0.00000000       0.18181818 </v>
   <v>       0.20000000       0.00000000       0.18181818 </v>
   <v>       0.26666667       0.00000000       0.18181818 </v>
   <v>       0.33333333       0.00000000       0.18181818 </v>
   <v>       0.40000000       0.00000000       0.18181818 </v>
   <v>       0.46666667       0.00000000       0.18181818 </v>
   <v>       0.06666667       0.06666667       0.18181818 </v>
   <v>       0.13333333       0.06666667       0.18181818 </v>
   <v>       0.20000000       0.06666667       0.18181818 </v>
   <v>       0.26666667       0.06666667       0.18181818 </v>
   <v>       0.33333333       0.06666667       0.18181818 </v>
   <v>       0.40000000       0.06666667       0.18181818 </v>
   <v>       0.46666667       0.06666667       0.18181818 </v>
   <v>       0.13333333       0.13333333       0.18181818 </v>
   <v>       0.20000000       0.13333333       0.18181818 </v>
   <v>       0.26666667       0.13333333       0.18181818 </v>
   <v>       0.33333333       0.13333333       0.18181818 </v>
   <v>       0.40000000       0.13333333       0.18181818 </v>
   <v>       0.20000000       0.20000000       0.18181818 </v>
   <v>       0.26666667       0.20000000       0.18181818 </v>
   <v>       0.33333333       0.20000000       0.18181818 </v>
   <v>       0.40000000       0.20000000       0.18181818 </v>
   <v>       0.26666667       0.26666667       0.18181818 </v>
   <v>       0.33333333       0.26666667       0.18181818 </v>
   <v>       0.33333333       0.33333333       0.18181818 </v>
   <v>       0.00000000       0.00000000       0.27272727 </v>
   <v>       0.06666667       0.00000000       0.27272727 </v>
   <v>       0.13333333       0.00000000       0.27272727 </v>
   <v>       0.20000000       0.00000000       0.27272727 </v>
   <v>       0.26666667       0.00000000       0.27272727 </v>
   <v>       0.33333333       0.00000000       0.27272727 </v>
   <v>       0.40000000       0.00000000       0.27272727 </v>
   <v>       0.46666667       0.00000000       0.27272727 </v>
   <v>       0.06666667       0.06666667       0.27272727 </v>
   <v>       0.13333333       0.06666667       0.27272727 </v>
   <v>       0.20000000       0.06666667       0.27272727 </v>
   <v>       0.26666667       0.06666667       0.27272727 </v>
   <v>       0.33333333       0.06666667       0.27272727 </v>
   <v>       0.40000000       0.06666667       0.27272727 </v>
   <v>       0.46666667       0.06666667       0.27272727 </v>
   <v>       0.13333333       0.13333333       0.27272727 </v>
   <v>       0.20000000       0.13333333       0.27272727 </v>
   <v>       0.26666667       0.13333333       0.27272727 </v>
   <v>       0.33333333       0.13333333       0.27272727 </v>
   <v>       0.40000000       0.13333333       0.27272727 </v>
   <v>       0.20000000       0.20000000       0.27272727 </v>
   <v>       0.26666667       0.20000000       0.27272727 </v>
   <v>       0.33333333       0.20000000       0.27272727 </v>
   <v>       0.40000000       0.20000000       0.27272727 </v>
   <v>       0.26666667       0.26666667       0.27272727 </v>
   <v>       0.33333333       0.26666667       0.27272727 </v>
   <v>       0.33333333       0.33333333       0.27272727 </v>
   <v>       0.00000000       0.00000000       0.36363636 </v>
   <v>       0.06666667       0.00000000       0.36363636 </v>
   <v>       0.13333333       0.00000000       0.36363636 </v>
   <v>       0.20000000       0.00000000       0.36363636 </v>
   <v>       0.26666667       0.00000000       0.36363636 </v>
   <v>       0.33333333       0.00000000       0.36363636 </v>
   <v>       0.40000000       0.00000000       0.36363636 </v>
   <v>       0.46666667       0.00000000       0.36363636 </v>
   <v>       0.06666667       0.06666667       0.36363636 </v>
   <v>       0.13333333       0.06666667       0.36363636 </v>
   <v>       0.20000000       0.06666667       0.36363636 </v>
   <v>       0.26666667       0.06666667       0.36363636 </v>
   <v>       0.33333333       0.06666667       0.36363636 </v>
   <v>       0.40000000       0.06666667       0.36363636 </v>
   <v>       0.46666667       0.06666667       0.36363636 </v>
   <v>       0.13333333       0.13333333       0.36363636 </v>
   <v>       0.20000000       0.13333333       0.36363636 </v>
   <v>       0.26666667       0.13333333       0.36363636 </v>
   <v>       0.33333333       0.13333333       0.36363636 </v>
   <v>       0.40000000       0.13333333       0.36363636 </v>
   <v>       0.20000000       0.20000000       0.36363636 </v>
   <v>       0.26666667       0.20000000       0.36363636 </v>
   <v>       0.33333333       0.20000000       0.36363636 </v>
   <v>       0.40000000       0.20000000       0.36363636 </v>
   <v>       0.26666667       0.26666667       0.36363636 </v>
   <v>       0.33333333       0.26666667       0.36363636 </v>
   <v>       0.33333333       0.33333333       0.36363636 </v>
   <v>       0.00000000       0.00000000       0.45454545 </v>
   <v>       0.06666667       0.00000000       0.45454545 </v>
   <v>       0.13333333       0.00000000       0.45454545 </v>
   <v>       0.20000000       0.00000000       0.45454545 </v>
   <v>       0.26666667       0.00000000       0.45454545 </v>
   <v>       0.33333333       0.00000000       0.45454545 </v>
   <v>       0.40000000       0.00000000       0.45454545 </v>
   <v>       0.46666667       0.00000000       0.45454545 </v>
   <v>       0.06666667       0.06666667       0.45454545 </v>
   <v>       0.13333333       0.06666667       0.45454545 </v>
   <v>       0.20000000       0.06666667       0.45454545 </v>
   <v>       0.26666667       0.06666667       0.45454545 </v>
   <v>       0.33333333       0.06666667       0.45454545 </v>
   <v>       0.40000000       0.06666667       0.45454545 </v>
   <v>       0.46666667       0.06666667       0.45454545 </v>
   <v>       0.13333333       0.13333333       0.45454545 </v>
   <v>       0.20000000       0.13333333       0.45454545 </v>
   <v>       0.26666667       0.13333333       0.45454545 </v>
   <v>       0.33333333       0.13333333       0.45454545 </v>
   <v>       0.40000000       0.13333333       0.45454545 </v>
   <v>       0.20000000       0.20000000       0.45454545 </v>
   <v>       0.26666667       0.20000000       0.45454545 </v>
   <v>       0.33333333       0.20000000       0.45454545 </v>
   <v>       0.40000000       0.20000000       0.45454545 </v>
   <v>       0.26666667       0.26666667       0.45454545 </v>
   <v>       0.33333333       0.26666667       0.45454545 </v>
   <v>       0.33333333       0.33333333       0.45454545 </v>
  </varray>
  <varray name="weights" >
   <v>       0.00040404 </v>
   <v>       0.00242424 </v>
   <v>       0.00242424 </v>
   <v>       0.00242424 </v>
   <v>       0.00242424 </v>
   <v>       0.00242424 </v>
   <v>       0.00242424 </v>
   <v>       0.00242424 </v>
   <v>       0.00242424 </v>
   <v>       0.00484848 </v>
   <v>       0.00484848 </v>
   <v>       0.00484848 </v>
   <v>       0.00484848 </v>
   <v>       0.00484848 </v>
   <v>       0.00242424 </v>
   <v>       0.00242424 </v>
   <v>       0.00484848 </v>
   <v>       0.00484848 </v>
   <v>       0.00484848 </v>
   <v>       0.00484848 </v>
   <v>       0.00242424 </v>
   <v>       0.00484848 </v>
   <v>       0.00484848 </v>
   <v>       0.00242424 </v>
   <v>       0.00242424 </v>
   <v>       0.00484848 </v>
   <v>       0.00080808 </v>
   <v>       0.00080808 </v>
   <v>       0.00484848 </v>
   <v>       0.00484848 </v>
   <v>       0.00484848 </v>
   <v>       0.00484848 </v>
   <v>       0.00484848 </v>
   <v>       0.00484848 </v>
   <v>       0.00484848 </v>
   <v>       0.00484848 </v>
   <v>       0.00969697 </v>
   <v>       0.00969697 </v>
   <v>       0.00969697 </v>
   <v>       0.00969697 </v>
   <v>       0.00969697 </v>
   <v>       0.00484848 </v>
   <v>       0.00484848 </v>
   <v>       0.00969697 </v>
   <v>       0.00969697 </v>
   <v>       0.00969697 </v>
   <v>       0.00969697 </v>
   <v>       0.00484848 </v>
   <v>       0.00969697 </v>
   <v>       0.00969697 </v>
   <v>       0.00484848 </v>
   <v>       0.00484848 </v>
   <v>       0.00969697 </v>
   <v>       0.00161616 </v>
   <v>       0.00080808 </v>
   <v>       0.00484848 </v>
   <v>       0.00484848 </v>
   <v>       0.00484848 </v>
   <v>       0.00484848 </v>
   <v>       0.00484848 </v>
   <v>       0.00484848 </v>
   <v>       0.00484848 </v>
   <v>       0.00484848 </v>
   <v>       0.00969697 </v>
   <v>       0.00969697 </v>
   <v>       0.00969697 </v>
   <v>       0.00969697 </v>
   <v>       0.00969697 </v>
   <v>       0.00484848 </v>
   <v>       0.00484848 </v>
   <v>       0.00969697 </v>
   <v>       0.00969697 </v>
   <v>       0.00969697 </v>
   <v>       0.00969697 </v>
   <v>       0.00484848 </v>
   <v>       0.00969697 </v>
   <v>       0.00969697 </v>
   <v>       0.00484848 </v>
   <v>       0.00484848 </v>
   <v>       0.00969697 </v>
   <v>       0.00161616 </v>
   <v>       0.00080808 </v>
   <v>       0.00484848 </v>
   <v>       0.00484848 </v>
   <v>       0.00484848 </v>
   <v>       0.00484848 </v>
   <v>       0.00484848 </v>
   <v>       0.00484848 </v>
   <v>       0.00484848 </v>
   <v>       0.00484848 </v>
   <v>       0.00969697 </v>
   <v>       0.00969697 </v>
   <v>       0.00969697 </v>
   <v>       0.00969697 </v>
   <v>       0.00969697 </v>
   <v>       0.00484848 </v>
   <v>       0.00484848 </v>
   <v>       0.00969697 </v>
   <v>       0.00969697 </v>
   <v>       0.00969697 </v>
   <v>       0.00969697 </v>
   <v>       0.00484848 </v>
   <v>       0.00969697 </v>
   <v>       0.00969697 </v>
   <v>       0.00484848 </v>
   <v>       0.00484848 </v>
   <v>       0.00969697 </v>
   <v>       0.00161616 </v>
   <v>       0.00080808 </v>
   <v>       0.00484848 </v>
   <v>       0.00484848 </v>
   <v>       0.00484848 </v>
   <v>       0.00484848 </v>
   <v>       0.00484848 </v>
   <v>       0.00484848 </v>
   <v>       0.00484848 </v>
   <v>       0.00484848 </v>
   <v>       0.00969697 </v>
   <v>       0.00969697 </v>
   <v>       0.00969697 </v>
   <v>       0.00969697 </v>
   <v>       0.00969697 </v>
   <v>       0.00484848 </v>
   <v>       0.00484848 </v>
   <v>       0.00969697 </v>
   <v>       0.00969697 </v>
   <v>       0.00969697 </v>
   <v>       0.00969697 </v>
   <v>       0.00484848 </v>
   <v>       0.00969697 </v>
   <v>       0.00969697 </v>
   <v>       0.00484848 </v>
   <v>       0.00484848 </v>
   <v>       0.00969697 </v>
   <v>       0.00161616 </v>
   <v>       0.00080808 </v>
   <v>       0.00484848 </v>
   <v>       0.00484848 </v>
   <v>       0.00484848 </v>
   <v>       0.00484848 </v>
   <v>       0.00484848 </v>
   <v>       0.00484848 </v>
   <v>       0.00484848 </v>
   <v>       0.00484848 </v>
   <v>       0.00969697 </v>
   <v>       0.00969697 </v>
   <v>       0.00969697 </v>
   <v>       0.00969697 </v>
   <v>       0.00969697 </v>
   <v>       0.00484848 </v>
   <v>       0.00484848 </v>
   <v>       0.00969697 </v>
   <v>       0.00969697 </v>
   <v>       0.00969697 </v>
   <v>       0.00969697 </v>
   <v>       0.00484848 </v>
   <v>       0.00969697 </v>
   <v>       0.00969697 </v>
   <v>       0.00484848 </v>
   <v>       0.00484848 </v>
   <v>       0.00969697 </v>
   <v>       0.00161616 </v>
  </varray>
  <varray name="tetrahedronlist"  type="int" >
   <v type="int" >        8        2        2        9       29 </v>
   <v type="int" >        8        1        2        2       29 </v>
   <v type="int" >        4        1        2       28       29 </v>
   <v type="int" >        4        2        9       29       36 </v>
   <v type="int" >        8        2       29       29       36 </v>
   <v type="int" >        8        2       28       29       29 </v>
   <v type="int" >        8        3        9       10       36 </v>
   <v type="int" >        8        2        3        9       36 </v>
   <v type="int" >        4        2        3       29       36 </v>
   <v type="int" >        4        3       10       36       37 </v>
   <v type="int" >        8        3       30       36       37 </v>
   <v type="int" >        8        3       29       30       36 </v>
   <v type="int" >        8        4       10       11       37 </v>
   <v type="int" >        8        3        4       10       37 </v>
   <v type="int" >        4        3        4       30       37 </v>
   <v type="int" >        4        4       11       37       38 </v>
   <v type="int" >        8        4       31       37       38 </v>
   <v type="int" >        8        4       30       31       37 </v>
   <v type="int" >        8        5       11       12       38 </v>
   <v type="int" >        8        4        5       11       38 </v>
   <v type="int" >        4        4        5       31       38 </v>
   <v type="int" >        4        5       12       38       39 </v>
   <v type="int" >        8        5       32       38       39 </v>
   <v type="int" >        8        5       31       32       38 </v>
   <v type="int" >        8        6       12       13       39 </v>
   <v type="int" >        8        5        6       12       39 </v>
   <v type="int" >        4        5        6       32       39 </v>
   <v type="int" >        4        6       13       39       40 </v>
   <v type="int" >        8        6       33       39       40 </v>
   <v type="int" >        8        6       32       33       39 </v>
   <v type="int" >        8        7       13       14       40 </v>
   <v type="int" >        8        6        7       13       40 </v>
   <v type="int" >        4        6        7       33       40 </v>
   <v type="int" >        4        7       14       40       41 </v>
   <v type="int" >        8        7       34       40       41 </v>
   <v type="int" >        8        7       33       34       40 </v>
   <v type="int" >        8        8       14       15       41 </v>
   <v type="int" >        8        7        8       14       41 </v>
   <v type="int" >        4        7        8       34       41 </v>
   <v type="int" >        4        8       15       41       42 </v>
   <v type="int" >        8        8       35       41       42 </v>
   <v type="int" >        8        8       34       35       41 </v>
   <v type="int" >        8        8       14       15       42 </v>
   <v type="int" >        4        8        8       15       42 </v>
   <v type="int" >        4        8        8       35       42 </v>
   <v type="int" >        4        8       14       41       42 </v>
   <v type="int" >        8        8       35       35       42 </v>
   <v type="int" >        8        7       13       14       41 </v>
   <v type="int" >        4        7        8       35       41 </v>
   <v type="int" >        4        7       13       40       41 </v>
   <v type="int" >        8        7       34       35       41 </v>
   <v type="int" >        8        6       12       13       40 </v>
   <v type="int" >        4        6        7       34       40 </v>
   <v type="int" >        4        6       12       39       40 </v>
   <v type="int" >        8        6       33       34       40 </v>
   <v type="int" >        8        5       11       12       39 </v>
   <v type="int" >        4        5        6       33       39 </v>
   <v type="int" >        4        5       11       38       39 </v>
   <v type="int" >        8        5       32       33       39 </v>
   <v type="int" >        8        4       10       11       38 </v>
   <v type="int" >        4        4        5       32       38 </v>
   <v type="int" >        4        4       10       37       38 </v>
   <v type="int" >        8        4       31       32       38 </v>
   <v type="int" >        8        3        9       10       37 </v>
   <v type="int" >        4        3        4       31       37 </v>
   <v type="int" >        4        3        9       36       37 </v>
   <v type="int" >        8        3       30       31       37 </v>
   <v type="int" >        4        2        2        9       36 </v>
   <v type="int" >        4        2        3       30       36 </v>
   <v type="int" >        4        2        2       29       36 </v>
   <v type="int" >        8        2       29       30       36 </v>
   <v type="int" >        4        1        2       29       29 </v>
   <v type="int" >        4        1       28       29       29 </v>
   <v type="int" >        8        3        9       10       30 </v>
   <v type="int" >        8        2        3        9       30 </v>
   <v type="int" >        4        2        9       29       30 </v>
   <v type="int" >        4        9       10       30       37 </v>
   <v type="int" >        8        9       30       36       37 </v>
   <v type="int" >        8        9       29       30       36 </v>
   <v type="int" >        8       10       10       16       37 </v>
   <v type="int" >        8        9       10       10       37 </v>
   <v type="int" >        4        9       10       36       37 </v>
   <v type="int" >        4       10       16       37       43 </v>
   <v type="int" >        8       10       37       37       43 </v>
   <v type="int" >        8       10       36       37       37 </v>
   <v type="int" >        8       11       16       17       43 </v>
   <v type="int" >        8       10       11       16       43 </v>
   <v type="int" >        4       10       11       37       43 </v>
   <v type="int" >        4       11       17       43       44 </v>
   <v type="int" >        8       11       38       43       44 </v>
   <v type="int" >        8       11       37       38       43 </v>
   <v type="int" >        8       12       17       18       44 </v>
   <v type="int" >        8       11       12       17       44 </v>
   <v type="int" >        4       11       12       38       44 </v>
   <v type="int" >        4       12       18       44       45 </v>
   <v type="int" >        8       12       39       44       45 </v>
   <v type="int" >        8       12       38       39       44 </v>
   <v type="int" >        8       13       18       19       45 </v>
   <v type="int" >        8       12       13       18       45 </v>
   <v type="int" >        4       12       13       39       45 </v>
   <v type="int" >        4       13       19       45       46 </v>
   <v type="int" >        8       13       40       45       46 </v>
   <v type="int" >        8       13       39       40       45 </v>
   <v type="int" >        8       14       19       20       46 </v>
   <v type="int" >        8       13       14       19       46 </v>
   <v type="int" >        4       13       14       40       46 </v>
   <v type="int" >        4       14       20       46       47 </v>
   <v type="int" >        8       14       41       46       47 </v>
   <v type="int" >        8       14       40       41       46 </v>
   <v type="int" >        8       15       20       20       47 </v>
   <v type="int" >        8       14       15       20       47 </v>
   <v type="int" >        4       14       15       41       47 </v>
   <v type="int" >        4       15       20       47       47 </v>
   <v type="int" >        4       15       42       47       47 </v>
   <v type="int" >        8       15       41       42       47 </v>
   <v type="int" >        8       14       19       20       47 </v>
   <v type="int" >        4       14       15       42       47 </v>
   <v type="int" >        4       14       19       46       47 </v>
   <v type="int" >        8       14       41       42       47 </v>
   <v type="int" >        8       13       18       19       46 </v>
   <v type="int" >        4       13       14       41       46 </v>
   <v type="int" >        4       13       18       45       46 </v>
   <v type="int" >        8       13       40       41       46 </v>
   <v type="int" >        8       12       17       18       45 </v>
   <v type="int" >        4       12       13       40       45 </v>
   <v type="int" >        4       12       17       44       45 </v>
   <v type="int" >        8       12       39       40       45 </v>
   <v type="int" >        8       11       16       17       44 </v>
   <v type="int" >        4       11       12       39       44 </v>
   <v type="int" >        4       11       16       43       44 </v>
   <v type="int" >        8       11       38       39       44 </v>
   <v type="int" >        4       10       10       16       43 </v>
   <v type="int" >        4       10       11       38       43 </v>
   <v type="int" >        4       10       10       37       43 </v>
   <v type="int" >        8       10       37       38       43 </v>
   <v type="int" >        4        9       10       37       37 </v>
   <v type="int" >        4        3        9       30       37 </v>
   <v type="int" >        4        9       36       37       37 </v>
   <v type="int" >        4        2        9       30       36 </v>
   <v type="int" >        8        4       10       11       31 </v>
   <v type="int" >        8        3        4       10       31 </v>
   <v type="int" >        4        3       10       30       31 </v>
   <v type="int" >        4       10       11       31       38 </v>
   <v type="int" >        8       10       31       37       38 </v>
   <v type="int" >        8       10       30       31       37 </v>
   <v type="int" >        8       11       16       17       38 </v>
   <v type="int" >        8       10       11       16       38 </v>
   <v type="int" >        4       10       16       37       38 </v>
   <v type="int" >        4       16       17       38       44 </v>
   <v type="int" >        8       16       38       43       44 </v>
   <v type="int" >        8       16       37       38       43 </v>
   <v type="int" >        8       17       17       21       44 </v>
   <v type="int" >        8       16       17       17       44 </v>
   <v type="int" >        4       16       17       43       44 </v>
   <v type="int" >        4       17       21       44       48 </v>
   <v type="int" >        8       17       44       44       48 </v>
   <v type="int" >        8       17       43       44       44 </v>
   <v type="int" >        8       18       21       22       48 </v>
   <v type="int" >        8       17       18       21       48 </v>
   <v type="int" >        4       17       18       44       48 </v>
   <v type="int" >        4       18       22       48       49 </v>
   <v type="int" >        8       18       45       48       49 </v>
   <v type="int" >        8       18       44       45       48 </v>
   <v type="int" >        8       19       22       23       49 </v>
   <v type="int" >        8       18       19       22       49 </v>
   <v type="int" >        4       18       19       45       49 </v>
   <v type="int" >        4       19       23       49       50 </v>
   <v type="int" >        8       19       46       49       50 </v>
   <v type="int" >        8       19       45       46       49 </v>
   <v type="int" >        8       20       23       24       50 </v>
   <v type="int" >        8       19       20       23       50 </v>
   <v type="int" >        4       19       20       46       50 </v>
   <v type="int" >        4       20       24       50       51 </v>
   <v type="int" >        8       20       47       50       51 </v>
   <v type="int" >        8       20       46       47       50 </v>
   <v type="int" >        8       20       23       24       51 </v>
   <v type="int" >        4       20       20       24       51 </v>
   <v type="int" >        4       20       20       47       51 </v>
   <v type="int" >        4       20       23       50       51 </v>
   <v type="int" >        8       20       47       47       51 </v>
   <v type="int" >        8       19       22       23       50 </v>
   <v type="int" >        4       19       20       47       50 </v>
   <v type="int" >        4       19       22       49       50 </v>
   <v type="int" >        8       19       46       47       50 </v>
   <v type="int" >        8       18       21       22       49 </v>
   <v type="int" >        4       18       19       46       49 </v>
   <v type="int" >        4       18       21       48       49 </v>
   <v type="int" >        8       18       45       46       49 </v>
   <v type="int" >        4       17       17       21       48 </v>
   <v type="int" >        4       17       18       45       48 </v>
   <v type="int" >        4       17       17       44       48 </v>
   <v type="int" >        8       17       44       45       48 </v>
   <v type="int" >        4       16       17       44       44 </v>
   <v type="int" >        4       11       16       38       44 </v>
   <v type="int" >        4       16       43       44       44 </v>
   <v type="int" >        4       10       16       38       43 </v>
   <v type="int" >        4        4       10       31       38 </v>
   <v type="int" >        4        3       10       31       37 </v>
   <v type="int" >        8        5       11       12       32 </v>
   <v type="int" >        8        4        5       11       32 </v>
   <v type="int" >        4        4       11       31       32 </v>
   <v type="int" >        4       11       12       32       39 </v>
   <v type="int" >        8       11       32       38       39 </v>
   <v type="int" >        8       11       31       32       38 </v>
   <v type="int" >        8       12       17       18       39 </v>
   <v type="int" >        8       11       12       17       39 </v>
   <v type="int" >        4       11       17       38       39 </v>
   <v type="int" >        4       17       18       39       45 </v>
   <v type="int" >        8       17       39       44       45 </v>
   <v type="int" >        8       17       38       39       44 </v>
   <v type="int" >        8       18       21       22       45 </v>
   <v type="int" >        8       17       18       21       45 </v>
   <v type="int" >        4       17       21       44       45 </v>
   <v type="int" >        4       21       22       45       49 </v>
   <v type="int" >        8       21       45       48       49 </v>
   <v type="int" >        8       21       44       45       48 </v>
   <v type="int" >        8       22       22       25       49 </v>
   <v type="int" >        8       21       22       22       49 </v>
   <v type="int" >        4       21       22       48       49 </v>
   <v type="int" >        4       22       25       49       52 </v>
   <v type="int" >        8       22       49       49       52 </v>
   <v type="int" >        8       22       48       49       49 </v>
   <v type="int" >        8       23       25       26       52 </v>
   <v type="int" >        8       22       23       25       52 </v>
   <v type="int" >        4       22       23       49       52 </v>
   <v type="int" >        4       23       26       52       53 </v>
   <v type="int" >        8       23       50       52       53 </v>
   <v type="int" >        8       23       49       50       52 </v>
   <v type="int" >        8       24       26       26       53 </v>
   <v type="int" >        8       23       24       26       53 </v>
   <v type="int" >        4       23       24       50       53 </v>
   <v type="int" >        4       24       26       53       53 </v>
   <v type="int" >        4       24       51       53       53 </v>
   <v type="int" >        8       24       50       51       53 </v>
   <v type="int" >        8       23       25       26       53 </v>
   <v type="int" >        4       23       24       51       53 </v>
   <v type="int" >        4       23       25       52       53 </v>
   <v type="int" >        8       23       50       51       53 </v>
   <v type="int" >        4       22       22       25       52 </v>
   <v type="int" >        4       22       23       50       52 </v>
   <v type="int" >        4       22       22       49       52 </v>
   <v type="int" >        8       22       49       50       52 </v>
   <v type="int" >        4       21       22       49       49 </v>
   <v type="int" >        4       18       21       45       49 </v>
   <v type="int" >        4       21       48       49       49 </v>
   <v type="int" >        4       17       21       45       48 </v>
   <v type="int" >        4       12       17       39       45 </v>
   <v type="int" >        4       11       17       39       44 </v>
   <v type="int" >        4        5       11       32       39 </v>
   <v type="int" >        4        4       11       32       38 </v>
   <v type="int" >        8        6       12       13       33 </v>
   <v type="int" >        8        5        6       12       33 </v>
   <v type="int" >        4        5       12       32       33 </v>
   <v type="int" >        4       12       13       33       40 </v>
   <v type="int" >        8       12       33       39       40 </v>
   <v type="int" >        8       12       32       33       39 </v>
   <v type="int" >        8       13       18       19       40 </v>
   <v type="int" >        8       12       13       18       40 </v>
   <v type="int" >        4       12       18       39       40 </v>
   <v type="int" >        4       18       19       40       46 </v>
   <v type="int" >        8       18       40       45       46 </v>
   <v type="int" >        8       18       39       40       45 </v>
   <v type="int" >        8       19       22       23       46 </v>
   <v type="int" >        8       18       19       22       46 </v>
   <v type="int" >        4       18       22       45       46 </v>
   <v type="int" >        4       22       23       46       50 </v>
   <v type="int" >        8       22       46       49       50 </v>
   <v type="int" >        8       22       45       46       49 </v>
   <v type="int" >        8       23       25       26       50 </v>
   <v type="int" >        8       22       23       25       50 </v>
   <v type="int" >        4       22       25       49       50 </v>
   <v type="int" >        4       25       26       50       53 </v>
   <v type="int" >        8       25       50       52       53 </v>
   <v type="int" >        8       25       49       50       52 </v>
   <v type="int" >       16       26       26       27       53 </v>
   <v type="int" >        8       25       26       26       53 </v>
   <v type="int" >        4       25       26       52       53 </v>
   <v type="int" >        8       26       27       53       54 </v>
   <v type="int" >       16       26       53       53       54 </v>
   <v type="int" >        8       26       52       53       53 </v>
   <v type="int" >        8       26       26       27       54 </v>
   <v type="int" >        8       26       26       53       54 </v>
   <v type="int" >        4       25       26       53       53 </v>
   <v type="int" >        4       23       25       50       53 </v>
   <v type="int" >        4       25       52       53       53 </v>
   <v type="int" >        4       22       25       50       52 </v>
   <v type="int" >        4       19       22       46       50 </v>
   <v type="int" >        4       18       22       46       49 </v>
   <v type="int" >        4       13       18       40       46 </v>
   <v type="int" >        4       12       18       40       45 </v>
   <v type="int" >        4        6       12       33       40 </v>
   <v type="int" >        4        5       12       33       39 </v>
   <v type="int" >        8        7       13       14       34 </v>
   <v type="int" >        8        6        7       13       34 </v>
   <v type="int" >        4        6       13       33       34 </v>
   <v type="int" >        4       13       14       34       41 </v>
   <v type="int" >        8       13       34       40       41 </v>
   <v type="int" >        8       13       33       34       40 </v>
   <v type="int" >        8       14       19       20       41 </v>
   <v type="int" >        8       13       14       19       41 </v>
   <v type="int" >        4       13       19       40       41 </v>
   <v type="int" >        4       19       20       41       47 </v>
   <v type="int" >        8       19       41       46       47 </v>
   <v type="int" >        8       19       40       41       46 </v>
   <v type="int" >        8       20       23       24       47 </v>
   <v type="int" >        8       19       20       23       47 </v>
   <v type="int" >        4       19       23       46       47 </v>
   <v type="int" >        4       23       24       47       51 </v>
   <v type="int" >        8       23       47       50       51 </v>
   <v type="int" >        8       23       46       47       50 </v>
   <v type="int" >        4       24       26       26       51 </v>
   <v type="int" >        8       23       24       26       51 </v>
   <v type="int" >        4       23       26       50       51 </v>
   <v type="int" >        4       26       26       51       53 </v>
   <v type="int" >        8       26       51       53       53 </v>
   <v type="int" >        8       26       50       51       53 </v>
   <v type="int" >        8       26       27       53       53 </v>
   <v type="int" >        8       27       53       53       54 </v>
   <v type="int" >        4       24       26       51       53 </v>
   <v type="int" >        4       23       26       51       53 </v>
   <v type="int" >        4       20       23       47       51 </v>
   <v type="int" >        4       19       23       47       50 </v>
   <v type="int" >        4       14       19       41       47 </v>
   <v type="int" >        4       13       19       41       46 </v>
   <v type="int" >        4        7       13       34       41 </v>
   <v type="int" >        4        6       13       34       40 </v>
   <v type="int" >        8        8       14       15       35 </v>
   <v type="int" >        8        7        8       14       35 </v>
   <v type="int" >        4        7       14       34       35 </v>
   <v type="int" >        4       14       15       35       42 </v>
   <v type="int" >        8       14       35       41       42 </v>
   <v type="int" >        8       14       34       35       41 </v>
   <v type="int" >        4       15       20       20       42 </v>
   <v type="int" >        8       14       15       20       42 </v>
   <v type="int" >        4       14       20       41       42 </v>
   <v type="int" >        4       20       20       42       47 </v>
   <v type="int" >        8       20       42       47       47 </v>
   <v type="int" >        8       20       41       42       47 </v>
   <v type="int" >        8       20       20       24       47 </v>
   <v type="int" >        4       20       24       47       47 </v>
   <v type="int" >        4       23       24       47       50 </v>
   <v type="int" >        8       24       47       50       51 </v>
   <v type="int" >        4       24       47       47       51 </v>
   <v type="int" >        8       23       24       26       50 </v>
   <v type="int" >        4       24       26       50       51 </v>
   <v type="int" >        4       25       26       50       52 </v>
   <v type="int" >        8       26       50       52       53 </v>
   <v type="int" >        4       25       26       26       52 </v>
   <v type="int" >        4       26       26       52       53 </v>
   <v type="int" >        4       23       26       50       52 </v>
   <v type="int" >        4       24       26       50       53 </v>
   <v type="int" >        4       20       24       47       50 </v>
   <v type="int" >        4       20       24       47       51 </v>
   <v type="int" >        4       15       20       42       47 </v>
   <v type="int" >        4       14       20       42       47 </v>
   <v type="int" >        4        8       14       35       42 </v>
   <v type="int" >        4        7       14       35       41 </v>
   <v type="int" >        8        8        8       15       35 </v>
   <v type="int" >        4        8       15       35       35 </v>
   <v type="int" >        4       14       15       35       41 </v>
   <v type="int" >        8       15       35       41       42 </v>
   <v type="int" >        4       15       35       35       42 </v>
   <v type="int" >        8       14       15       20       41 </v>
   <v type="int" >        4       15       20       41       42 </v>
   <v type="int" >        4       19       20       41       46 </v>
   <v type="int" >        8       20       41       46       47 </v>
   <v type="int" >        8       19       20       23       46 </v>
   <v type="int" >        4       20       23       46       47 </v>
   <v type="int" >        4       22       23       46       49 </v>
   <v type="int" >        8       23       46       49       50 </v>
   <v type="int" >        8       22       23       25       49 </v>
   <v type="int" >        4       23       25       49       50 </v>
   <v type="int" >        4       22       25       49       49 </v>
   <v type="int" >        4       25       49       49       52 </v>
   <v type="int" >        4       23       25       49       52 </v>
   <v type="int" >        4       19       23       46       49 </v>
   <v type="int" >        4       20       23       46       50 </v>
   <v type="int" >        4       14       20       41       46 </v>
   <v type="int" >        4       15       20       41       47 </v>
   <v type="int" >        4        8       15       35       41 </v>
   <v type="int" >        4        8       15       35       42 </v>
   <v type="int" >        8        7        8       14       34 </v>
   <v type="int" >        4        8       14       34       35 </v>
   <v type="int" >        4       13       14       34       40 </v>
   <v type="int" >        8       14       34       40       41 </v>
   <v type="int" >        8       13       14       19       40 </v>
   <v type="int" >        4       14       19       40       41 </v>
   <v type="int" >        4       18       19       40       45 </v>
   <v type="int" >        8       19       40       45       46 </v>
   <v type="int" >        8       18       19       22       45 </v>
   <v type="int" >        4       19       22       45       46 </v>
   <v type="int" >        4       21       22       45       48 </v>
   <v type="int" >        8       22       45       48       49 </v>
   <v type="int" >        4       21       22       22       48 </v>
   <v type="int" >        4       22       22       48       49 </v>
   <v type="int" >        4       18       22       45       48 </v>
   <v type="int" >        4       19       22       45       49 </v>
   <v type="int" >        4       13       19       40       45 </v>
   <v type="int" >        4       14       19       40       46 </v>
   <v type="int" >        4        7       14       34       40 </v>
   <v type="int" >        4        8       14       34       41 </v>
   <v type="int" >        8        6        7       13       33 </v>
   <v type="int" >        4        7       13       33       34 </v>
   <v type="int" >        4       12       13       33       39 </v>
   <v type="int" >        8       13       33       39       40 </v>
   <v type="int" >        8       12       13       18       39 </v>
   <v type="int" >        4       13       18       39       40 </v>
   <v type="int" >        4       17       18       39       44 </v>
   <v type="int" >        8       18       39       44       45 </v>
   <v type="int" >        8       17       18       21       44 </v>
   <v type="int" >        4       18       21       44       45 </v>
   <v type="int" >        4       17       21       44       44 </v>
   <v type="int" >        4       21       44       44       48 </v>
   <v type="int" >        4       18       21       44       48 </v>
   <v type="int" >        4       12       18       39       44 </v>
   <v type="int" >        4       13       18       39       45 </v>
   <v type="int" >        4        6       13       33       39 </v>
   <v type="int" >        4        7       13       33       40 </v>
   <v type="int" >        8        5        6       12       32 </v>
   <v type="int" >        4        6       12       32       33 </v>
   <v type="int" >        4       11       12       32       38 </v>
   <v type="int" >        8       12       32       38       39 </v>
   <v type="int" >        8       11       12       17       38 </v>
   <v type="int" >        4       12       17       38       39 </v>
   <v type="int" >        4       16       17       38       43 </v>
   <v type="int" >        8       17       38       43       44 </v>
   <v type="int" >        4       16       17       17       43 </v>
   <v type="int" >        4       17       17       43       44 </v>
   <v type="int" >        4       11       17       38       43 </v>
   <v type="int" >        4       12       17       38       44 </v>
   <v type="int" >        4        5       12       32       38 </v>
   <v type="int" >        4        6       12       32       39 </v>
   <v type="int" >        8        4        5       11       31 </v>
   <v type="int" >        4        5       11       31       32 </v>
   <v type="int" >        4       10       11       31       37 </v>
   <v type="int" >        8       11       31       37       38 </v>
   <v type="int" >        8       10       11       16       37 </v>
   <v type="int" >        4       11       16       37       38 </v>
   <v type="int" >        4       10       16       37       37 </v>
   <v type="int" >        4       16       37       37       43 </v>
   <v type="int" >        4       11       16       37       43 </v>
   <v type="int" >        4        4       11       31       37 </v>
   <v type="int" >        4        5       11       31       38 </v>
   <v type="int" >        8        3        4       10       30 </v>
   <v type="int" >        4        4       10       30       31 </v>
   <v type="int" >        4        9       10       30       36 </v>
   <v type="int" >        8       10       30       36       37 </v>
   <v type="int" >        4        9       10       10       36 </v>
   <v type="int" >        4       10       10       36       37 </v>
   <v type="int" >        4        3       10       30       36 </v>
   <v type="int" >        4        4       10       30       37 </v>
   <v type="int" >        8        2        3        9       29 </v>
   <v type="int" >        4        3        9       29       30 </v>
   <v type="int" >        4        2        9       29       29 </v>
   <v type="int" >        4        9       29       29       36 </v>
   <v type="int" >        4        3        9       29       36 </v>
   <v type="int" >        4        1        2        2       28 </v>
   <v type="int" >        4        2        2       28       29 </v>
   <v type="int" >        8       29       29       36       56 </v>
   <v type="int" >        8       28       29       29       56 </v>
   <v type="int" >        4       28       29       55       56 </v>
   <v type="int" >        4       29       36       56       63 </v>
   <v type="int" >        8       29       56       56       63 </v>
   <v type="int" >        8       29       55       56       56 </v>
   <v type="int" >        8       30       36       37       63 </v>
   <v type="int" >        8       29       30       36       63 </v>
   <v type="int" >        4       29       30       56       63 </v>
   <v type="int" >        4       30       37       63       64 </v>
   <v type="int" >        8       30       57       63       64 </v>
   <v type="int" >        8       30       56       57       63 </v>
   <v type="int" >        8       31       37       38       64 </v>
   <v type="int" >        8       30       31       37       64 </v>
   <v type="int" >        4       30       31       57       64 </v>
   <v type="int" >        4       31       38       64       65 </v>
   <v type="int" >        8       31       58       64       65 </v>
   <v type="int" >        8       31       57       58       64 </v>
   <v type="int" >        8       32       38       39       65 </v>
   <v type="int" >        8       31       32       38       65 </v>
   <v type="int" >        4       31       32       58       65 </v>
   <v type="int" >        4       32       39       65       66 </v>
   <v type="int" >        8       32       59       65       66 </v>
   <v type="int" >        8       32       58       59       65 </v>
   <v type="int" >        8       33       39       40       66 </v>
   <v type="int" >        8       32       33       39       66 </v>
   <v type="int" >        4       32       33       59       66 </v>
   <v type="int" >        4       33       40       66       67 </v>
   <v type="int" >        8       33       60       66       67 </v>
   <v type="int" >        8       33       59       60       66 </v>
   <v type="int" >        8       34       40       41       67 </v>
   <v type="int" >        8       33       34       40       67 </v>
   <v type="int" >        4       33       34       60       67 </v>
   <v type="int" >        4       34       41       67       68 </v>
   <v type="int" >        8       34       61       67       68 </v>
   <v type="int" >        8       34       60       61       67 </v>
   <v type="int" >        8       35       41       42       68 </v>
   <v type="int" >        8       34       35       41       68 </v>
   <v type="int" >        4       34       35       61       68 </v>
   <v type="int" >        4       35       42       68       69 </v>
   <v type="int" >        8       35       62       68       69 </v>
   <v type="int" >        8       35       61       62       68 </v>
   <v type="int" >        8       35       41       42       69 </v>
   <v type="int" >        4       35       35       42       69 </v>
   <v type="int" >        4       35       35       62       69 </v>
   <v type="int" >        4       35       41       68       69 </v>
   <v type="int" >        8       35       62       62       69 </v>
   <v type="int" >        8       34       40       41       68 </v>
   <v type="int" >        4       34       35       62       68 </v>
   <v type="int" >        4       34       40       67       68 </v>
   <v type="int" >        8       34       61       62       68 </v>
   <v type="int" >        8       33       39       40       67 </v>
   <v type="int" >        4       33       34       61       67 </v>
   <v type="int" >        4       33       39       66       67 </v>
   <v type="int" >        8       33       60       61       67 </v>
   <v type="int" >        8       32       38       39       66 </v>
   <v type="int" >        4       32       33       60       66 </v>
   <v type="int" >        4       32       38       65       66 </v>
   <v type="int" >        8       32       59       60       66 </v>
   <v type="int" >        8       31       37       38       65 </v>
   <v type="int" >        4       31       32       59       65 </v>
   <v type="int" >        4       31       37       64       65 </v>
   <v type="int" >        8       31       58       59       65 </v>
   <v type="int" >        8       30       36       37       64 </v>
   <v type="int" >        4       30       31       58       64 </v>
   <v type="int" >        4       30       36       63       64 </v>
   <v type="int" >        8       30       57       58       64 </v>
   <v type="int" >        4       29       29       36       63 </v>
   <v type="int" >        4       29       30       57       63 </v>
   <v type="int" >        4       29       29       56       63 </v>
   <v type="int" >        8       29       56       57       63 </v>
   <v type="int" >        4       28       29       56       56 </v>
   <v type="int" >        4       28       55       56       56 </v>
   <v type="int" >        8       30       36       37       57 </v>
   <v type="int" >        8       29       30       36       57 </v>
   <v type="int" >        4       29       36       56       57 </v>
   <v type="int" >        4       36       37       57       64 </v>
   <v type="int" >        8       36       57       63       64 </v>
   <v type="int" >        8       36       56       57       63 </v>
   <v type="int" >        8       37       37       43       64 </v>
   <v type="int" >        8       36       37       37       64 </v>
   <v type="int" >        4       36       37       63       64 </v>
   <v type="int" >        4       37       43       64       70 </v>
   <v type="int" >        8       37       64       64       70 </v>
   <v type="int" >        8       37       63       64       64 </v>
   <v type="int" >        8       38       43       44       70 </v>
   <v type="int" >        8       37       38       43       70 </v>
   <v type="int" >        4       37       38       64       70 </v>
   <v type="int" >        4       38       44       70       71 </v>
   <v type="int" >        8       38       65       70       71 </v>
   <v type="int" >        8       38       64       65       70 </v>
   <v type="int" >        8       39       44       45       71 </v>
   <v type="int" >        8       38       39       44       71 </v>
   <v type="int" >        4       38       39       65       71 </v>
   <v type="int" >        4       39       45       71       72 </v>
   <v type="int" >        8       39       66       71       72 </v>
   <v type="int" >        8       39       65       66       71 </v>
   <v type="int" >        8       40       45       46       72 </v>
   <v type="int" >        8       39       40       45       72 </v>
   <v type="int" >        4       39       40       66       72 </v>
   <v type="int" >        4       40       46       72       73 </v>
   <v type="int" >        8       40       67       72       73 </v>
   <v type="int" >        8       40       66       67       72 </v>
   <v type="int" >        8       41       46       47       73 </v>
   <v type="int" >        8       40       41       46       73 </v>
   <v type="int" >        4       40       41       67       73 </v>
   <v type="int" >        4       41       47       73       74 </v>
   <v type="int" >        8       41       68       73       74 </v>
   <v type="int" >        8       41       67       68       73 </v>
   <v type="int" >        8       42       47       47       74 </v>
   <v type="int" >        8       41       42       47       74 </v>
   <v type="int" >        4       41       42       68       74 </v>
   <v type="int" >        4       42       47       74       74 </v>
   <v type="int" >        4       42       69       74       74 </v>
   <v type="int" >        8       42       68       69       74 </v>
   <v type="int" >        8       41       46       47       74 </v>
   <v type="int" >        4       41       42       69       74 </v>
   <v type="int" >        4       41       46       73       74 </v>
   <v type="int" >        8       41       68       69       74 </v>
   <v type="int" >        8       40       45       46       73 </v>
   <v type="int" >        4       40       41       68       73 </v>
   <v type="int" >        4       40       45       72       73 </v>
   <v type="int" >        8       40       67       68       73 </v>
   <v type="int" >        8       39       44       45       72 </v>
   <v type="int" >        4       39       40       67       72 </v>
   <v type="int" >        4       39       44       71       72 </v>
   <v type="int" >        8       39       66       67       72 </v>
   <v type="int" >        8       38       43       44       71 </v>
   <v type="int" >        4       38       39       66       71 </v>
   <v type="int" >        4       38       43       70       71 </v>
   <v type="int" >        8       38       65       66       71 </v>
   <v type="int" >        4       37       37       43       70 </v>
   <v type="int" >        4       37       38       65       70 </v>
   <v type="int" >        4       37       37       64       70 </v>
   <v type="int" >        8       37       64       65       70 </v>
   <v type="int" >        4       36       37       64       64 </v>
   <v type="int" >        4       30       36       57       64 </v>
   <v type="int" >        4       36       63       64       64 </v>
   <v type="int" >        4       29       36       57       63 </v>
   <v type="int" >        8       31       37       38       58 </v>
   <v type="int" >        8       30       31       37       58 </v>
   <v type="int" >        4       30       37       57       58 </v>
   <v type="int" >        4       37       38       58       65 </v>
   <v type="int" >        8       37       58       64       65 </v>
   <v type="int" >        8       37       57       58       64 </v>
   <v type="int" >        8       38       43       44       65 </v>
   <v type="int" >        8       37       38       43       65 </v>
   <v type="int" >        4       37       43       64       65 </v>
   <v type="int" >        4       43       44       65       71 </v>
   <v type="int" >        8       43       65       70       71 </v>
   <v type="int" >        8       43       64       65       70 </v>
   <v type="int" >        8       44       44       48       71 </v>
   <v type="int" >        8       43       44       44       71 </v>
   <v type="int" >        4       43       44       70       71 </v>
   <v type="int" >        4       44       48       71       75 </v>
   <v type="int" >        8       44       71       71       75 </v>
   <v type="int" >        8       44       70       71       71 </v>
   <v type="int" >        8       45       48       49       75 </v>
   <v type="int" >        8       44       45       48       75 </v>
   <v type="int" >        4       44       45       71       75 </v>
   <v type="int" >        4       45       49       75       76 </v>
   <v type="int" >        8       45       72       75       76 </v>
   <v type="int" >        8       45       71       72       75 </v>
   <v type="int" >        8       46       49       50       76 </v>
   <v type="int" >        8       45       46       49       76 </v>
   <v type="int" >        4       45       46       72       76 </v>
   <v type="int" >        4       46       50       76       77 </v>
   <v type="int" >        8       46       73       76       77 </v>
   <v type="int" >        8       46       72       73       76 </v>
   <v type="int" >        8       47       50       51       77 </v>
   <v type="int" >        8       46       47       50       77 </v>
   <v type="int" >        4       46       47       73       77 </v>
   <v type="int" >        4       47       51       77       78 </v>
   <v type="int" >        8       47       74       77       78 </v>
   <v type="int" >        8       47       73       74       77 </v>
   <v type="int" >        8       47       50       51       78 </v>
   <v type="int" >        4       47       47       51       78 </v>
   <v type="int" >        4       47       47       74       78 </v>
   <v type="int" >        4       47       50       77       78 </v>
   <v type="int" >        8       47       74       74       78 </v>
   <v type="int" >        8       46       49       50       77 </v>
   <v type="int" >        4       46       47       74       77 </v>
   <v type="int" >        4       46       49       76       77 </v>
   <v type="int" >        8       46       73       74       77 </v>
   <v type="int" >        8       45       48       49       76 </v>
   <v type="int" >        4       45       46       73       76 </v>
   <v type="int" >        4       45       48       75       76 </v>
   <v type="int" >        8       45       72       73       76 </v>
   <v type="int" >        4       44       44       48       75 </v>
   <v type="int" >        4       44       45       72       75 </v>
   <v type="int" >        4       44       44       71       75 </v>
   <v type="int" >        8       44       71       72       75 </v>
   <v type="int" >        4       43       44       71       71 </v>
   <v type="int" >        4       38       43       65       71 </v>
   <v type="int" >        4       43       70       71       71 </v>
   <v type="int" >        4       37       43       65       70 </v>
   <v type="int" >        4       31       37       58       65 </v>
   <v type="int" >        4       30       37       58       64 </v>
   <v type="int" >        8       32       38       39       59 </v>
   <v type="int" >        8       31       32       38       59 </v>
   <v type="int" >        4       31       38       58       59 </v>
   <v type="int" >        4       38       39       59       66 </v>
   <v type="int" >        8       38       59       65       66 </v>
   <v type="int" >        8       38       58       59       65 </v>
   <v type="int" >        8       39       44       45       66 </v>
   <v type="int" >        8       38       39       44       66 </v>
   <v type="int" >        4       38       44       65       66 </v>
   <v type="int" >        4       44       45       66       72 </v>
   <v type="int" >        8       44       66       71       72 </v>
   <v type="int" >        8       44       65       66       71 </v>
   <v type="int" >        8       45       48       49       72 </v>
   <v type="int" >        8       44       45       48       72 </v>
   <v type="int" >        4       44       48       71       72 </v>
   <v type="int" >        4       48       49       72       76 </v>
   <v type="int" >        8       48       72       75       76 </v>
   <v type="int" >        8       48       71       72       75 </v>
   <v type="int" >        8       49       49       52       76 </v>
   <v type="int" >        8       48       49       49       76 </v>
   <v type="int" >        4       48       49       75       76 </v>
   <v type="int" >        4       49       52       76       79 </v>
   <v type="int" >        8       49       76       76       79 </v>
   <v type="int" >        8       49       75       76       76 </v>
   <v type="int" >        8       50       52       53       79 </v>
   <v type="int" >        8       49       50       52       79 </v>
   <v type="int" >        4       49       50       76       79 </v>
   <v type="int" >        4       50       53       79       80 </v>
   <v type="int" >        8       50       77       79       80 </v>
   <v type="int" >        8       50       76       77       79 </v>
   <v type="int" >        8       51       53       53       80 </v>
   <v type="int" >        8       50       51       53       80 </v>
   <v type="int" >        4       50       51       77       80 </v>
   <v type="int" >        4       51       53       80       80 </v>
   <v type="int" >        4       51       78       80       80 </v>
   <v type="int" >        8       51       77       78       80 </v>
   <v type="int" >        8       50       52       53       80 </v>
   <v type="int" >        4       50       51       78       80 </v>
   <v type="int" >        4       50       52       79       80 </v>
   <v type="int" >        8       50       77       78       80 </v>
   <v type="int" >        4       49       49       52       79 </v>
   <v type="int" >        4       49       50       77       79 </v>
   <v type="int" >        4       49       49       76       79 </v>
   <v type="int" >        8       49       76       77       79 </v>
   <v type="int" >        4       48       49       76       76 </v>
   <v type="int" >        4       45       48       72       76 </v>
   <v type="int" >        4       48       75       76       76 </v>
   <v type="int" >        4       44       48       72       75 </v>
   <v type="int" >        4       39       44       66       72 </v>
   <v type="int" >        4       38       44       66       71 </v>
   <v type="int" >        4       32       38       59       66 </v>
   <v type="int" >        4       31       38       59       65 </v>
   <v type="int" >        8       33       39       40       60 </v>
   <v type="int" >        8       32       33       39       60 </v>
   <v type="int" >        4       32       39       59       60 </v>
   <v type="int" >        4       39       40       60       67 </v>
   <v type="int" >        8       39       60       66       67 </v>
   <v type="int" >        8       39       59       60       66 </v>
   <v type="int" >        8       40       45       46       67 </v>
   <v type="int" >        8       39       40       45       67 </v>
   <v type="int" >        4       39       45       66       67 </v>
   <v type="int" >        4       45       46       67       73 </v>
   <v type="int" >        8       45       67       72       73 </v>
   <v type="int" >        8       45       66       67       72 </v>
   <v type="int" >        8       46       49       50       73 </v>
   <v type="int" >        8       45       46       49       73 </v>
   <v type="int" >        4       45       49       72       73 </v>
   <v type="int" >        4       49       50       73       77 </v>
   <v type="int" >        8       49       73       76       77 </v>
   <v type="int" >        8       49       72       73       76 </v>
   <v type="int" >        8       50       52       53       77 </v>
   <v type="int" >        8       49       50       52       77 </v>
   <v type="int" >        4       49       52       76       77 </v>
   <v type="int" >        4       52       53       77       80 </v>
   <v type="int" >        8       52       77       79       80 </v>
   <v type="int" >        8       52       76       77       79 </v>
   <v type="int" >       16       53       53       54       80 </v>
   <v type="int" >        8       52       53       53       80 </v>
   <v type="int" >        4       52       53       79       80 </v>
   <v type="int" >        8       53       54       80       81 </v>
   <v type="int" >       16       53       80       80       81 </v>
   <v type="int" >        8       53       79       80       80 </v>
   <v type="int" >        8       53       53       54       81 </v>
   <v type="int" >        8       53       53       80       81 </v>
   <v type="int" >        4       52       53       80       80 </v>
   <v type="int" >        4       50       52       77       80 </v>
   <v type="int" >        4       52       79       80       80 </v>
   <v type="int" >        4       49       52       77       79 </v>
   <v type="int" >        4       46       49       73       77 </v>
   <v type="int" >        4       45       49       73       76 </v>
   <v type="int" >        4       40       45       67       73 </v>
   <v type="int" >        4       39       45       67       72 </v>
   <v type="int" >        4       33       39       60       67 </v>
   <v type="int" >        4       32       39       60       66 </v>
   <v type="int" >        8       34       40       41       61 </v>
   <v type="int" >        8       33       34       40       61 </v>
   <v type="int" >        4       33       40       60       61 </v>
   <v type="int" >        4       40       41       61       68 </v>
   <v type="int" >        8       40       61       67       68 </v>
   <v type="int" >        8       40       60       61       67 </v>
   <v type="int" >        8       41       46       47       68 </v>
   <v type="int" >        8       40       41       46       68 </v>
   <v type="int" >        4       40       46       67       68 </v>
   <v type="int" >        4       46       47       68       74 </v>
   <v type="int" >        8       46       68       73       74 </v>
   <v type="int" >        8       46       67       68       73 </v>
   <v type="int" >        8       47       50       51       74 </v>
   <v type="int" >        8       46       47       50       74 </v>
   <v type="int" >        4       46       50       73       74 </v>
   <v type="int" >        4       50       51       74       78 </v>
   <v type="int" >        8       50       74       77       78 </v>
   <v type="int" >        8       50       73       74       77 </v>
   <v type="int" >        4       51       53       53       78 </v>
   <v type="int" >        8       50       51       53       78 </v>
   <v type="int" >        4       50       53       77       78 </v>
   <v type="int" >        4       53       53       78       80 </v>
   <v type="int" >        8       53       78       80       80 </v>
   <v type="int" >        8       53       77       78       80 </v>
   <v type="int" >        8       53       54       80       80 </v>
   <v type="int" >        8       54       80       80       81 </v>
   <v type="int" >        4       51       53       78       80 </v>
   <v type="int" >        4       50       53       78       80 </v>
   <v type="int" >        4       47       50       74       78 </v>
   <v type="int" >        4       46       50       74       77 </v>
   <v type="int" >        4       41       46       68       74 </v>
   <v type="int" >        4       40       46       68       73 </v>
   <v type="int" >        4       34       40       61       68 </v>
   <v type="int" >        4       33       40       61       67 </v>
   <v type="int" >        8       35       41       42       62 </v>
   <v type="int" >        8       34       35       41       62 </v>
   <v type="int" >        4       34       41       61       62 </v>
   <v type="int" >        4       41       42       62       69 </v>
   <v type="int" >        8       41       62       68       69 </v>
   <v type="int" >        8       41       61       62       68 </v>
   <v type="int" >        4       42       47       47       69 </v>
   <v type="int" >        8       41       42       47       69 </v>
   <v type="int" >        4       41       47       68       69 </v>
   <v type="int" >        4       47       47       69       74 </v>
   <v type="int" >        8       47       69       74       74 </v>
   <v type="int" >        8       47       68       69       74 </v>
   <v type="int" >        8       47       47       51       74 </v>
   <v type="int" >        4       47       51       74       74 </v>
   <v type="int" >        4       50       51       74       77 </v>
   <v type="int" >        8       51       74       77       78 </v>
   <v type="int" >        4       51       74       74       78 </v>
   <v type="int" >        8       50       51       53       77 </v>
   <v type="int" >        4       51       53       77       78 </v>
   <v type="int" >        4       52       53       77       79 </v>
   <v type="int" >        8       53       77       79       80 </v>
   <v type="int" >        4       52       53       53       79 </v>
   <v type="int" >        4       53       53       79       80 </v>
   <v type="int" >        4       50       53       77       79 </v>
   <v type="int" >        4       51       53       77       80 </v>
   <v type="int" >        4       47       51       74       77 </v>
   <v type="int" >        4       47       51       74       78 </v>
   <v type="int" >        4       42       47       69       74 </v>
   <v type="int" >        4       41       47       69       74 </v>
   <v type="int" >        4       35       41       62       69 </v>
   <v type="int" >        4       34       41       62       68 </v>
   <v type="int" >        8       35       35       42       62 </v>
   <v type="int" >        4       35       42       62       62 </v>
   <v type="int" >        4       41       42       62       68 </v>
   <v type="int" >        8       42       62       68       69 </v>
   <v type="int" >        4       42       62       62       69 </v>
   <v type="int" >        8       41       42       47       68 </v>
   <v type="int" >        4       42       47       68       69 </v>
   <v type="int" >        4       46       47       68       73 </v>
   <v type="int" >        8       47       68       73       74 </v>
   <v type="int" >        8       46       47       50       73 </v>
   <v type="int" >        4       47       50       73       74 </v>
   <v type="int" >        4       49       50       73       76 </v>
   <v type="int" >        8       50       73       76       77 </v>
   <v type="int" >        8       49       50       52       76 </v>
   <v type="int" >        4       50       52       76       77 </v>
   <v type="int" >        4       49       52       76       76 </v>
   <v type="int" >        4       52       76       76       79 </v>
   <v type="int" >        4       50       52       76       79 </v>
   <v type="int" >        4       46       50       73       76 </v>
   <v type="int" >        4       47       50       73       77 </v>
   <v type="int" >        4       41       47       68       73 </v>
   <v type="int" >        4       42       47       68       74 </v>
   <v type="int" >        4       35       42       62       68 </v>
   <v type="int" >        4       35       42       62       69 </v>
   <v type="int" >        8       34       35       41       61 </v>
   <v type="int" >        4       35       41       61       62 </v>
   <v type="int" >        4       40       41       61       67 </v>
   <v type="int" >        8       41       61       67       68 </v>
   <v type="int" >        8       40       41       46       67 </v>
   <v type="int" >        4       41       46       67       68 </v>
   <v type="int" >        4       45       46       67       72 </v>
   <v type="int" >        8       46       67       72       73 </v>
   <v type="int" >        8       45       46       49       72 </v>
   <v type="int" >        4       46       49       72       73 </v>
   <v type="int" >        4       48       49       72       75 </v>
   <v type="int" >        8       49       72       75       76 </v>
   <v type="int" >        4       48       49       49       75 </v>
   <v type="int" >        4       49       49       75       76 </v>
   <v type="int" >        4       45       49       72       75 </v>
   <v type="int" >        4       46       49       72       76 </v>
   <v type="int" >        4       40       46       67       72 </v>
   <v type="int" >        4       41       46       67       73 </v>
   <v type="int" >        4       34       41       61       67 </v>
   <v type="int" >        4       35       41       61       68 </v>
   <v type="int" >        8       33       34       40       60 </v>
   <v type="int" >        4       34       40       60       61 </v>
   <v type="int" >        4       39       40       60       66 </v>
   <v type="int" >        8       40       60       66       67 </v>
   <v type="int" >        8       39       40       45       66 </v>
   <v type="int" >        4       40       45       66       67 </v>
   <v type="int" >        4       44       45       66       71 </v>
   <v type="int" >        8       45       66       71       72 </v>
   <v type="int" >        8       44       45       48       71 </v>
   <v type="int" >        4       45       48       71       72 </v>
   <v type="int" >        4       44       48       71       71 </v>
   <v type="int" >        4       48       71       71       75 </v>
   <v type="int" >        4       45       48       71       75 </v>
   <v type="int" >        4       39       45       66       71 </v>
   <v type="int" >        4       40       45       66       72 </v>
   <v type="int" >        4       33       40       60       66 </v>
   <v type="int" >        4       34       40       60       67 </v>
   <v type="int" >        8       32       33       39       59 </v>
   <v type="int" >        4       33       39       59       60 </v>
   <v type="int" >        4       38       39       59       65 </v>
   <v type="int" >        8       39       59       65       66 </v>
   <v type="int" >        8       38       39       44       65 </v>
   <v type="int" >        4       39       44       65       66 </v>
   <v type="int" >        4       43       44       65       70 </v>
   <v type="int" >        8       44       65       70       71 </v>
   <v type="int" >        4       43       44       44       70 </v>
   <v type="int" >        4       44       44       70       71 </v>
   <v type="int" >        4       38       44       65       70 </v>
   <v type="int" >        4       39       44       65       71 </v>
   <v type="int" >        4       32       39       59       65 </v>
   <v type="int" >        4       33       39       59       66 </v>
   <v type="int" >        8       31       32       38       58 </v>
   <v type="int" >        4       32       38       58       59 </v>
   <v type="int" >        4       37       38       58       64 </v>
   <v type="int" >        8       38       58       64       65 </v>
   <v type="int" >        8       37       38       43       64 </v>
   <v type="int" >        4       38       43       64       65 </v>
   <v type="int" >        4       37       43       64       64 </v>
   <v type="int" >        4       43       64       64       70 </v>
   <v type="int" >        4       38       43       64       70 </v>
   <v type="int" >        4       31       38       58       64 </v>
   <v type="int" >        4       32       38       58       65 </v>
   <v type="int" >        8       30       31       37       57 </v>
   <v type="int" >        4       31       37       57       58 </v>
   <v type="int" >        4       36       37       57       63 </v>
   <v type="int" >        8       37       57       63       64 </v>
   <v type="int" >        4       36       37       37       63 </v>
   <v type="int" >        4       37       37       63       64 </v>
   <v type="int" >        4       30       37       57       63 </v>
   <v type="int" >        4       31       37       57       64 </v>
   <v type="int" >        8       29       30       36       56 </v>
   <v type="int" >        4       30       36       56       57 </v>
   <v type="int" >        4       29       36       56       56 </v>
   <v type="int" >        4       36       56       56       63 </v>
   <v type="int" >        4       30       36       56       63 </v>
   <v type="int" >        4       28       29       29       55 </v>
   <v type="int" >        4       29       29       55       56 </v>
   <v type="int" >        8       56       56       63       83 </v>
   <v type="int" >        8       55       56       56       83 </v>
   <v type="int" >        4       55       56       82       83 </v>
   <v type="int" >        4       56       63       83       90 </v>
[...]
       <r>    1.1420    0.0000 </r>
       <r>    5.2245    0.0000 </r>
       <r>    5.7898    0.0000 </r>
      </set>
      <set comment="kpoint 142">
       <r>   -9.4766    1.0000 </r>
       <r>   -9.3864    1.0000 </r>
       <r>    0.9121    0.0000 </r>
       <r>    1.0687    0.0000 </r>
       <r>    4.8240    0.0000 </r>
       <r>    5.4087    0.0000 </r>
      </set>
      <set comment="kpoint 143">
       <r>   -9.4395    1.0000 </r>
       <r>   -9.3713    1.0000 </r>
       <r>    0.8587    0.0000 </r>
       <r>    1.0331    0.0000 </r>
       <r>    4.6187    0.0000 </r>
       <r>    5.2143    0.0000 </r>
      </set>
      <set comment="kpoint 144">
       <r>   -9.7594    1.0000 </r>
       <r>   -9.5682    1.0000 </r>
       <r>    1.2775    0.0000 </r>
       <r>    1.5316    0.0000 </r>
       <r>    7.6014    0.0000 </r>
       <r>    7.6820    0.0000 </r>
      </set>
      <set comment="kpoint 145">
       <r>   -9.7095    1.0000 </r>
       <r>   -9.5321    1.0000 </r>
       <r>    1.2188    0.0000 </r>
       <r>    1.4309    0.0000 </r>
       <r>    6.7790    0.0000 </r>
       <r>    7.1405    0.0000 </r>
      </set>
      <set comment="kpoint 146">
       <r>   -9.6429    1.0000 </r>
       <r>   -9.4856    1.0000 </r>
       <r>    1.1441    0.0000 </r>
       <r>    1.3085    0.0000 </r>
       <r>    5.9795    0.0000 </r>
       <r>    6.4475    0.0000 </r>
      </set>
      <set comment="kpoint 147">
       <r>   -9.5690    1.0000 </r>
       <r>   -9.4374    1.0000 </r>
       <r>    1.0608    0.0000 </r>
       <r>    1.1939    0.0000 </r>
       <r>    5.2988    0.0000 </r>
       <r>    5.8095    0.0000 </r>
      </set>
      <set comment="kpoint 148">
       <r>   -9.5002    1.0000 </r>
       <r>   -9.3979    1.0000 </r>
       <r>    0.9756    0.0000 </r>
       <r>    1.1129    0.0000 </r>
       <r>    4.7824    0.0000 </r>
       <r>    5.3215    0.0000 </r>
      </set>
      <set comment="kpoint 149">
       <r>   -9.4487    1.0000 </r>
       <r>   -9.3743    1.0000 </r>
       <r>    0.9097    0.0000 </r>
       <r>    1.0697    0.0000 </r>
       <r>    4.4596    0.0000 </r>
       <r>    5.0189    0.0000 </r>
      </set>
      <set comment="kpoint 150">
       <r>   -9.4291    1.0000 </r>
       <r>   -9.3675    1.0000 </r>
       <r>    0.8852    0.0000 </r>
       <r>    1.0564    0.0000 </r>
       <r>    4.3497    0.0000 </r>
       <r>    4.9165    0.0000 </r>
      </set>
      <set comment="kpoint 151">
       <r>   -9.6528    1.0000 </r>
       <r>   -9.4921    1.0000 </r>
       <r>    1.1634    0.0000 </r>
       <r>    1.3313    0.0000 </r>
       <r>    6.0094    0.0000 </r>
       <r>    6.4253    0.0000 </r>
      </set>
      <set comment="kpoint 152">
       <r>   -9.5847    1.0000 </r>
       <r>   -9.4471    1.0000 </r>
       <r>    1.1090    0.0000 </r>
       <r>    1.2322    0.0000 </r>
       <r>    5.2399    0.0000 </r>
       <r>    5.6924    0.0000 </r>
      </set>
      <set comment="kpoint 153">
       <r>   -9.5153    1.0000 </r>
       <r>   -9.4058    1.0000 </r>
       <r>    1.0587    0.0000 </r>
       <r>    1.1622    0.0000 </r>
       <r>    4.5927    0.0000 </r>
       <r>    5.0752    0.0000 </r>
      </set>
      <set comment="kpoint 154">
       <r>   -9.4571    1.0000 </r>
       <r>   -9.3771    1.0000 </r>
       <r>    1.0129    0.0000 </r>
       <r>    1.1358    0.0000 </r>
       <r>    4.1244    0.0000 </r>
       <r>    4.6355    0.0000 </r>
      </set>
      <set comment="kpoint 155">
       <r>   -9.4213    1.0000 </r>
       <r>   -9.3640    1.0000 </r>
       <r>    0.9856    0.0000 </r>
       <r>    1.1336    0.0000 </r>
       <r>    3.8764    0.0000 </r>
       <r>    4.4072    0.0000 </r>
      </set>
      <set comment="kpoint 156">
       <r>   -9.5211    1.0000 </r>
       <r>   -9.4090    1.0000 </r>
       <r>    1.1004    0.0000 </r>
       <r>    1.1803    0.0000 </r>
       <r>    4.5059    0.0000 </r>
       <r>    4.9661    0.0000 </r>
      </set>
      <set comment="kpoint 157">
       <r>   -9.4614    1.0000 </r>
       <r>   -9.3782    1.0000 </r>
       <r>    1.1122    0.0000 </r>
       <r>    1.1768    0.0000 </r>
       <r>    3.8942    0.0000 </r>
       <r>    4.3773    0.0000 </r>
      </set>
      <set comment="kpoint 158">
       <r>   -9.4166    1.0000 </r>
       <r>   -9.3613    1.0000 </r>
       <r>    1.1229    0.0000 </r>
       <r>    1.2175    0.0000 </r>
       <r>    3.4781    0.0000 </r>
       <r>    3.9905    0.0000 </r>
      </set>
      <set comment="kpoint 159">
       <r>   -9.3981    1.0000 </r>
       <r>   -9.3577    1.0000 </r>
       <r>    1.1283    0.0000 </r>
       <r>    1.2427    0.0000 </r>
       <r>    3.3273    0.0000 </r>
       <r>    3.8547    0.0000 </r>
      </set>
      <set comment="kpoint 160">
       <r>   -9.4152    1.0000 </r>
       <r>   -9.3602    1.0000 </r>
       <r>    1.2095    0.0000 </r>
       <r>    1.2380    0.0000 </r>
       <r>    3.3218    0.0000 </r>
       <r>    3.8289    0.0000 </r>
      </set>
      <set comment="kpoint 161">
       <r>   -9.3836    1.0000 </r>
       <r>   -9.3552    1.0000 </r>
       <r>    1.2765    0.0000 </r>
       <r>    1.3260    0.0000 </r>
       <r>    2.9776    0.0000 </r>
       <r>    3.5175    0.0000 </r>
      </set>
      <set comment="kpoint 162">
       <r>   -9.3637    1.0000 </r>
       <r>   -9.3637    1.0000 </r>
       <r>    1.3721    0.0000 </r>
       <r>    1.3721    0.0000 </r>
       <r>    2.7727    0.0000 </r>
       <r>    3.3363    0.0000 </r>
      </set>
     </set>
    </set>
   </array>
  </eigenvalues>
  <separator name="orbital magnetization" >
   <v name="MAGDIPOLOUT">      0.00000000      0.00000000      0.00000000</v>
  </separator>
  <dos>
   <i name="efermi">     -8.90845358 </i>
   <total>
    <array>
     <dimension dim="1">gridpoints</dimension>
     <dimension dim="2">spin</dimension>
     <field>energy</field>
     <field>total</field>
     <field>integrated</field>
     <set>
      <set comment="spin 1">
       <r> -12.3588   0.0000   0.0000 </r>
       <r> -12.2825   0.0000   0.0000 </r>
       <r> -12.2063   0.0000   0.0000 </r>
       <r> -12.1300   0.0000   0.0000 </r>
       <r> -12.0538   0.0000   0.0000 </r>
       <r> -11.9775   0.0000   0.0000 </r>
       <r> -11.9013   0.0000   0.0000 </r>
       <r> -11.8250   0.0000   0.0000 </r>
       <r> -11.7488   0.0000   0.0000 </r>
       <r> -11.6725   0.0000   0.0000 </r>
       <r> -11.5963   0.0000   0.0000 </r>
       <r> -11.5200   0.0000   0.0000 </r>
       <r> -11.4438   0.0000   0.0000 </r>
       <r> -11.3675   0.0000   0.0000 </r>
       <r> -11.2913   0.0000   0.0000 </r>
       <r> -11.2150   0.0000   0.0000 </r>
       <r> -11.1388   0.0000   0.0000 </r>
       <r> -11.0625   0.0000   0.0000 </r>
       <r> -10.9863   0.0000   0.0000 </r>
       <r> -10.9100   0.0000   0.0000 </r>
       <r> -10.8338   0.0000   0.0000 </r>
       <r> -10.7575   0.0000   0.0000 </r>
       <r> -10.6813   0.0000   0.0000 </r>
       <r> -10.6050   0.0000   0.0000 </r>
       <r> -10.5288   0.0000   0.0000 </r>
       <r> -10.4525   0.0000   0.0000 </r>
       <r> -10.3763   0.0000   0.0000 </r>
       <r> -10.3000   0.3848   0.0125 </r>
       <r> -10.2238   0.6644   0.0534 </r>
       <r> -10.1475   0.8968   0.1128 </r>
       <r> -10.0713   1.1246   0.1900 </r>
       <r>  -9.9950   1.3807   0.2851 </r>
       <r>  -9.9188   1.6608   0.4008 </r>
       <r>  -9.8425   2.0090   0.5403 </r>
       <r>  -9.7663   2.6450   0.7162 </r>
       <r>  -9.6900   3.2239   0.9361 </r>
       <r>  -9.6138   4.0615   1.2298 </r>
       <r>  -9.5375   4.2860   1.5546 </r>
       <r>  -9.4613   4.4087   1.8890 </r>
       <r>  -9.3850   3.8955   2.2026 </r>
       <r>  -9.3088   5.9220   2.6347 </r>
       <r>  -9.2325   6.0549   3.0911 </r>
       <r>  -9.1563   3.9325   3.4923 </r>
       <r>  -9.0800   2.7312   3.7387 </r>
       <r>  -9.0038   1.7668   3.9124 </r>
       <r>  -8.9275   0.0000   4.0000 </r>
       <r>  -8.8513   0.0000   4.0000 </r>
       <r>  -8.7750   0.0000   4.0000 </r>
       <r>  -8.6988   0.0000   4.0000 </r>
       <r>  -8.6225   0.0000   4.0000 </r>
       <r>  -8.5463   0.0000   4.0000 </r>
       <r>  -8.4700   0.0000   4.0000 </r>
       <r>  -8.3938   0.0000   4.0000 </r>
       <r>  -8.3175   0.0000   4.0000 </r>
       <r>  -8.2413   0.0000   4.0000 </r>
       <r>  -8.1650   0.0000   4.0000 </r>
       <r>  -8.0888   0.0000   4.0000 </r>
       <r>  -8.0125   0.0000   4.0000 </r>
       <r>  -7.9363   0.0000   4.0000 </r>
       <r>  -7.8600   0.0000   4.0000 </r>
       <r>  -7.7838   0.0000   4.0000 </r>
       <r>  -7.7075   0.0000   4.0000 </r>
       <r>  -7.6313   0.0000   4.0000 </r>
       <r>  -7.5550   0.0000   4.0000 </r>
       <r>  -7.4788   0.0000   4.0000 </r>
       <r>  -7.4025   0.0000   4.0000 </r>
       <r>  -7.3263   0.0000   4.0000 </r>
       <r>  -7.2500   0.0000   4.0000 </r>
       <r>  -7.1738   0.0000   4.0000 </r>
       <r>  -7.0975   0.0000   4.0000 </r>
       <r>  -7.0213   0.0000   4.0000 </r>
       <r>  -6.9450   0.0000   4.0000 </r>
       <r>  -6.8688   0.0000   4.0000 </r>
       <r>  -6.7925   0.0000   4.0000 </r>
       <r>  -6.7163   0.0000   4.0000 </r>
       <r>  -6.6400   0.0000   4.0000 </r>
       <r>  -6.5638   0.0000   4.0000 </r>
       <r>  -6.4875   0.0000   4.0000 </r>
       <r>  -6.4113   0.0000   4.0000 </r>
       <r>  -6.3350   0.0000   4.0000 </r>
       <r>  -6.2588   0.0000   4.0000 </r>
       <r>  -6.1825   0.0000   4.0000 </r>
       <r>  -6.1062   0.0000   4.0000 </r>
       <r>  -6.0300   0.0000   4.0000 </r>
       <r>  -5.9537   0.0000   4.0000 </r>
       <r>  -5.8775   0.0000   4.0000 </r>
       <r>  -5.8012   0.0000   4.0000 </r>
       <r>  -5.7250   0.0000   4.0000 </r>
       <r>  -5.6487   0.0000   4.0000 </r>
       <r>  -5.5725   0.0000   4.0000 </r>
       <r>  -5.4962   0.0000   4.0000 </r>
       <r>  -5.4200   0.0000   4.0000 </r>
       <r>  -5.3437   0.0000   4.0000 </r>
       <r>  -5.2675   0.0000   4.0000 </r>
       <r>  -5.1912   0.0000   4.0000 </r>
       <r>  -5.1150   0.0000   4.0000 </r>
       <r>  -5.0387   0.0000   4.0000 </r>
       <r>  -4.9625   0.0000   4.0000 </r>
       <r>  -4.8862   0.0000   4.0000 </r>
       <r>  -4.8100   0.0000   4.0000 </r>
       <r>  -4.7337   0.0000   4.0000 </r>
       <r>  -4.6575   0.0000   4.0000 </r>
       <r>  -4.5812   0.0000   4.0000 </r>
       <r>  -4.5050   0.0000   4.0000 </r>
       <r>  -4.4287   0.0000   4.0000 </r>
       <r>  -4.3525   0.0000   4.0000 </r>
       <r>  -4.2762   0.0000   4.0000 </r>
       <r>  -4.2000   0.0000   4.0000 </r>
       <r>  -4.1237   0.0000   4.0000 </r>
       <r>  -4.0475   0.0000   4.0000 </r>
       <r>  -3.9712   0.0000   4.0000 </r>
       <r>  -3.8950   0.0000   4.0000 </r>
       <r>  -3.8187   0.0000   4.0000 </r>
       <r>  -3.7425   0.0000   4.0000 </r>
       <r>  -3.6662   0.0000   4.0000 </r>
       <r>  -3.5900   0.0000   4.0000 </r>
       <r>  -3.5137   0.0000   4.0000 </r>
       <r>  -3.4375   0.0000   4.0000 </r>
       <r>  -3.3612   0.0000   4.0000 </r>
       <r>  -3.2850   0.0000   4.0000 </r>
       <r>  -3.2087   0.0000   4.0000 </r>
       <r>  -3.1325   0.0000   4.0000 </r>
       <r>  -3.0562   0.0000   4.0000 </r>
       <r>  -2.9800   0.0000   4.0000 </r>
       <r>  -2.9037   0.0000   4.0000 </r>
       <r>  -2.8275   0.0000   4.0000 </r>
       <r>  -2.7512   0.0000   4.0000 </r>
       <r>  -2.6750   0.0000   4.0000 </r>
       <r>  -2.5987   0.0000   4.0000 </r>
       <r>  -2.5225   0.0000   4.0000 </r>
       <r>  -2.4462   0.0000   4.0000 </r>
       <r>  -2.3700   0.0000   4.0000 </r>
       <r>  -2.2937   0.0000   4.0000 </r>
       <r>  -2.2175   0.0000   4.0000 </r>
       <r>  -2.1412   0.0000   4.0000 </r>
       <r>  -2.0650   0.0000   4.0000 </r>
       <r>  -1.9887   0.0000   4.0000 </r>
       <r>  -1.9125   0.0000   4.0000 </r>
       <r>  -1.8362   0.0000   4.0000 </r>
       <r>  -1.7600   0.0000   4.0000 </r>
       <r>  -1.6837   0.0000   4.0000 </r>
       <r>  -1.6075   0.0000   4.0000 </r>
       <r>  -1.5312   0.0000   4.0000 </r>
       <r>  -1.4550   0.0000   4.0000 </r>
       <r>  -1.3787   0.0000   4.0000 </r>
       <r>  -1.3025   0.0000   4.0000 </r>
       <r>  -1.2262   0.0000   4.0000 </r>
       <r>  -1.1500   0.0000   4.0000 </r>
       <r>  -1.0737   0.0000   4.0000 </r>
       <r>  -0.9975   0.0000   4.0000 </r>
       <r>  -0.9212   0.0000   4.0000 </r>
       <r>  -0.8450   0.0000   4.0000 </r>
       <r>  -0.7687   0.0000   4.0000 </r>
       <r>  -0.6925   0.0000   4.0000 </r>
       <r>  -0.6162   0.0000   4.0000 </r>
       <r>  -0.5400   0.0000   4.0000 </r>
       <r>  -0.4637   0.0000   4.0000 </r>
       <r>  -0.3875   0.0000   4.0000 </r>
       <r>  -0.3112   0.0000   4.0000 </r>
       <r>  -0.2350   0.0000   4.0000 </r>
       <r>  -0.1587   0.0000   4.0000 </r>
       <r>  -0.0825   0.0000   4.0000 </r>
       <r>  -0.0062   0.0000   4.0000 </r>
       <r>   0.0700   0.0000   4.0000 </r>
       <r>   0.1463   0.0000   4.0000 </r>
       <r>   0.2225   0.0000   4.0000 </r>
       <r>   0.2988   0.0000   4.0000 </r>
       <r>   0.3750   0.0000   4.0000 </r>
       <r>   0.4513   0.0000   4.0000 </r>
       <r>   0.5275   0.0000   4.0000 </r>
       <r>   0.6038   0.0000   4.0000 </r>
       <r>   0.6800   0.0000   4.0000 </r>
       <r>   0.7563   0.0368   4.0002 </r>
       <r>   0.8325   0.5120   4.0167 </r>
       <r>   0.9088   1.7560   4.1142 </r>
       <r>   0.9850   2.5476   4.2747 </r>
       <r>   1.0613   5.5224   4.5412 </r>
       <r>   1.1375   4.5774   4.9714 </r>
       <r>   1.2138   4.0798   5.3032 </r>
       <r>   1.2900   3.8860   5.6022 </r>
       <r>   1.3663   3.4144   5.8867 </r>
       <r>   1.4425   3.2864   6.1373 </r>
       <r>   1.5188   3.5840   6.4041 </r>
       <r>   1.5950   2.3236   6.6251 </r>
       <r>   1.6713   1.8101   6.7779 </r>
       <r>   1.7475   1.3654   6.8984 </r>
       <r>   1.8238   1.2617   6.9965 </r>
       <r>   1.9000   1.4763   7.0970 </r>
       <r>   1.9763   1.9260   7.2350 </r>
       <r>   2.0525   1.3419   7.3565 </r>
       <r>   2.1288   1.1568   7.4514 </r>
       <r>   2.2051   1.0297   7.5344 </r>
       <r>   2.2813   0.9427   7.6094 </r>
       <r>   2.3576   0.8883   7.6788 </r>
       <r>   2.4338   0.8445   7.7451 </r>
       <r>   2.5101   0.7942   7.8075 </r>
       <r>   2.5863   0.7517   7.8664 </r>
       <r>   2.6626   0.7251   7.9228 </r>
       <r>   2.7388   0.6974   7.9770 </r>
       <r>   2.8151   0.7222   8.0331 </r>
       <r>   2.8913   0.5341   8.0822 </r>
       <r>   2.9676   0.4884   8.1199 </r>
       <r>   3.0438   0.4724   8.1559 </r>
       <r>   3.1201   0.6024   8.1974 </r>
       <r>   3.1963   0.7293   8.2483 </r>
       <r>   3.2726   0.7569   8.3057 </r>
       <r>   3.3488   0.8074   8.3650 </r>
       <r>   3.4251   0.8905   8.4296 </r>
       <r>   3.5013   1.0217   8.5020 </r>
       <r>   3.5776   1.1557   8.5865 </r>
       <r>   3.6538   1.0211   8.6720 </r>
       <r>   3.7301   1.0071   8.7478 </r>
       <r>   3.8063   0.9843   8.8238 </r>
       <r>   3.8826   0.9782   8.8986 </r>
       <r>   3.9588   0.9730   8.9729 </r>
       <r>   4.0351   0.9792   9.0473 </r>
       <r>   4.1113   1.0356   9.1238 </r>
       <r>   4.1876   1.0479   9.2039 </r>
       <r>   4.2638   1.0214   9.2827 </r>
       <r>   4.3401   1.0285   9.3604 </r>
       <r>   4.4163   1.0699   9.4406 </r>
       <r>   4.4926   1.0887   9.5230 </r>
       <r>   4.5688   1.1005   9.6065 </r>
       <r>   4.6451   1.0917   9.6907 </r>
       <r>   4.7213   1.1039   9.7742 </r>
       <r>   4.7976   1.1206   9.8592 </r>
       <r>   4.8738   1.1330   9.9449 </r>
       <r>   4.9501   1.1988  10.0330 </r>
       <r>   5.0263   1.2762  10.1276 </r>
       <r>   5.1026   1.3166  10.2266 </r>
       <r>   5.1788   1.2882  10.3270 </r>
       <r>   5.2551   1.1859  10.4210 </r>
       <r>   5.3313   1.1444  10.5096 </r>
       <r>   5.4076   1.1242  10.5961 </r>
       <r>   5.4838   1.1225  10.6816 </r>
       <r>   5.5601   1.1272  10.7673 </r>
       <r>   5.6363   1.2128  10.8567 </r>
       <r>   5.7126   1.1470  10.9475 </r>
       <r>   5.7888   1.1391  11.0346 </r>
       <r>   5.8651   1.0861  11.1193 </r>
       <r>   5.9413   0.9250  11.1989 </r>
       <r>   6.0176   0.7972  11.2644 </r>
       <r>   6.0938   0.7146  11.3216 </r>
       <r>   6.1701   0.6611  11.3740 </r>
       <r>   6.2463   0.6153  11.4226 </r>
       <r>   6.3226   0.5736  11.4679 </r>
       <r>   6.3988   0.5384  11.5102 </r>
       <r>   6.4751   0.5055  11.5501 </r>
       <r>   6.5513   0.4760  11.5875 </r>
       <r>   6.6276   0.4492  11.6228 </r>
       <r>   6.7038   0.4205  11.6559 </r>
       <r>   6.7801   0.3925  11.6869 </r>
       <r>   6.8563   0.3686  11.7159 </r>
       <r>   6.9326   0.3487  11.7432 </r>
       <r>   7.0088   0.3274  11.7691 </r>
       <r>   7.0851   0.3087  11.7932 </r>
       <r>   7.1613   0.2955  11.8163 </r>
       <r>   7.2376   0.2774  11.8381 </r>
       <r>   7.3138   0.2587  11.8585 </r>
       <r>   7.3901   0.2397  11.8776 </r>
       <r>   7.4663   0.2195  11.8951 </r>
       <r>   7.5426   0.1987  11.9110 </r>
       <r>   7.6188   0.2304  11.9261 </r>
       <r>   7.6951   0.1906  11.9423 </r>
       <r>   7.7713   0.1409  11.9546 </r>
       <r>   7.8476   0.1190  11.9645 </r>
       <r>   7.9238   0.0978  11.9727 </r>
       <r>   8.0001   0.0829  11.9796 </r>
       <r>   8.0763   0.0704  11.9855 </r>
       <r>   8.1526   0.0574  11.9904 </r>
       <r>   8.2288   0.0512  11.9944 </r>
       <r>   8.3051   0.0308  11.9975 </r>
       <r>   8.3813   0.0148  11.9992 </r>
       <r>   8.4576   0.0046  11.9999 </r>
       <r>   8.5338   0.0000  12.0000 </r>
       <r>   8.6101   0.0000  12.0000 </r>
       <r>   8.6863   0.0000  12.0000 </r>
       <r>   8.7626   0.0000  12.0000 </r>
       <r>   8.8388   0.0000  12.0000 </r>
       <r>   8.9151   0.0000  12.0000 </r>
       <r>   8.9913   0.0000  12.0000 </r>
       <r>   9.0676   0.0000  12.0000 </r>
       <r>   9.1438   0.0000  12.0000 </r>
       <r>   9.2201   0.0000  12.0000 </r>
       <r>   9.2963   0.0000  12.0000 </r>
       <r>   9.3726   0.0000  12.0000 </r>
       <r>   9.4488   0.0000  12.0000 </r>
       <r>   9.5251   0.0000  12.0000 </r>
       <r>   9.6013   0.0000  12.0000 </r>
       <r>   9.6776   0.0000  12.0000 </r>
       <r>   9.7538   0.0000  12.0000 </r>
       <r>   9.8301   0.0000  12.0000 </r>
       <r>   9.9063   0.0000  12.0000 </r>
       <r>   9.9826   0.0000  12.0000 </r>
       <r>  10.0588   0.0000  12.0000 </r>
       <r>  10.1351   0.0000  12.0000 </r>
       <r>  10.2113   0.0000  12.0000 </r>
       <r>  10.2876   0.0000  12.0000 </r>
       <r>  10.3638   0.0000  12.0000 </r>
       <r>  10.4401   0.0000  12.0000 </r>
       <r>  10.5163   0.0000  12.0000 </r>
      </set>
     </set>
    </array>
   </total>
  </dos>
 </calculation>
 <structure name="finalpos" >
  <crystal>
   <varray name="basis" >
    <v>       3.92577526       0.00000000       0.00000000 </v>
    <v>      -1.96288763       3.39982110       0.00000000 </v>
    <v>       0.00000000       0.00000000       4.90093312 </v>
   </varray>
   <i name="volume">     65.41242883 </i>
   <varray name="rec_basis" >
    <v>       0.25472676       0.14706656       0.00000000 </v>
    <v>       0.00000000       0.29413312       0.00000000 </v>
    <v>       0.00000000       0.00000000       0.20404278 </v>
   </varray>
  </crystal>
  <varray name="positions" >
   <v>       0.33333333       0.66666667       0.17498445 </v>
   <v>       0.66666667       0.33333333       0.82501555 </v>
   <v>       0.66666667       0.33333333       0.67498445 </v>
   <v>       0.33333333       0.66666667       0.32501555 </v>
  </varray>
 </structure>
</modeling>
