 vasp.5.3.3 18Dez12 (build Mar 21 2013 17:04:57) complex                        
  
 executed on             LinuxIFC date 2018.01.16  08:55:45
 serial version


--------------------------------------------------------------------------------------------------------


 INCAR:
 POTCAR:    PAW_PBE Cu_pv 06Sep2000               
 POTCAR:    PAW_PBE Ni_pv 06Sep2000               
 POTCAR:    PAW_PBE Cu_pv 06Sep2000               
   VRHFIN =Cu: d10 p1                                                           
   LEXCH  = PE                                                                  
   EATOM  =  4120.1201 eV,  302.8203 Ry                                         
                                                                                
   TITEL  = PAW_PBE Cu_pv 06Sep2000                                             
   LULTRA =        F    use ultrasoft PP ?                                      
   IUNSCR =        1    unscreen: 0-lin 1-nonlin 2-no                           
   RPACOR =    1.500    partial core radius                                     
   POMASS =   63.546; ZVAL   =   17.000    mass and valenz                      
   RCORE  =    2.000    outmost cutoff radius                                   
   RWIGS  =    2.000; RWIGS  =    1.058    wigner-seitz radius (au A)           
   ENMAX  =  368.648; ENMIN  =  276.486 eV                                      
   RCLOC  =    1.304    cutoff for local pot                                    
   LCOR   =        T    correct aug charges                                     
   LPAW   =        T    paw PP                                                  
   EAUG   =  758.233                                                            
   DEXC   =    0.000                                                            
   RMAX   =    2.046    core radius for proj-oper                               
   RAUG   =    1.300    factor for augmentation sphere                          
   RDEP   =    2.025    radius for radial grids                                 
   RDEPT  =    1.558    core radius for aug-charge                              
                                                                                
   Atomic configuration                                                         
    8 entries                                                                   
     n  l   j            E        occ.                                          
     1  0  0.50     -8850.2467   2.0000                                         
     2  0  0.50     -1062.3498   2.0000                                         
     2  1  1.50      -916.8226   6.0000                                         
     3  0  0.50      -114.6929   2.0000                                         
     3  1  1.50       -72.1325   6.0000                                         
     3  2  2.50        -5.0394  10.0000                                         
     4  0  0.50        -4.6097   1.0000                                         
     4  3  2.50        -1.3606   0.0000                                         
   Description                                                                  
     l       E           TYP  RCUT    TYP  RCUT                                 
     1    -72.1324777     23  1.700                                             
     1     -1.3605826     23  1.700                                             
     2     -5.0393776     23  2.000                                             
     2     -6.3999602     23  2.000                                             
     0     -4.6097062     23  1.800                                             
     0     14.1620818     23  1.800                                             
  local pseudopotential read in
  partial core-charges read in
  partial kinetic energy density read in
  atomic valenz-charges read in
  non local Contribution for L=           1  read in
    real space projection operators read in
  non local Contribution for L=           1  read in
    real space projection operators read in
  non local Contribution for L=           2  read in
    real space projection operators read in
  non local Contribution for L=           2  read in
    real space projection operators read in
  non local Contribution for L=           0  read in
    real space projection operators read in
  non local Contribution for L=           0  read in
    real space projection operators read in
    PAW grid and wavefunctions read in
 
   number of l-projection  operators is LMAX  =           6
   number of lm-projection operators is LMMAX =          18
 
 POTCAR:    PAW_PBE Ni_pv 06Sep2000               
   VRHFIN =Ni:                                                                  
   LEXCH  = PE                                                                  
   EATOM  =  3501.1230 eV,  257.3253 Ry                                         
                                                                                
   TITEL  = PAW_PBE Ni_pv 06Sep2000                                             
   LULTRA =        F    use ultrasoft PP ?                                      
   IUNSCR =        1    unscreen: 0-lin 1-nonlin 2-no                           
   RPACOR =    1.500    partial core radius                                     
   POMASS =   58.690; ZVAL   =   16.000    mass and valenz                      
   RCORE  =    2.000    outmost cutoff radius                                   
   RWIGS  =    2.000; RWIGS  =    1.058    wigner-seitz radius (au A)           
   ENMAX  =  367.986; ENMIN  =  275.989 eV                                      
   RCLOC  =    1.301    cutoff for local pot                                    
   LCOR   =        T    correct aug charges                                     
   LPAW   =        T    paw PP                                                  
   EAUG   =  703.443                                                            
   DEXC   =    0.000                                                            
   RMAX   =    2.041    core radius for proj-oper                               
   RAUG   =    1.300    factor for augmentation sphere                          
   RDEP   =    2.103    radius for radial grids                                 
   RDEPT  =    1.618    core radius for aug-charge                              
                                                                                
   Atomic configuration                                                         
    8 entries                                                                   
     n  l   j            E        occ.                                          
     1  0  0.50     -8206.4253   2.0000                                         
     2  0  0.50      -976.1748   2.0000                                         
     2  1  1.50      -839.0571   6.0000                                         
     3  0  0.50      -105.9991   2.0000                                         
     3  1  1.50       -66.4603   6.0000                                         
     3  2  2.50        -4.6458   9.0000                                         
     4  0  0.50        -4.4926   1.0000                                         
     4  3  2.50        -1.3606   0.0000                                         
   Description                                                                  
     l       E           TYP  RCUT    TYP  RCUT                                 
     1    -66.4602962     23  1.700                                             
     1     -1.3605826     23  1.700                                             
     2     -4.6457867     23  2.000                                             
     2     -6.0063693     23  2.000                                             
     0     -4.4925576     23  1.900                                             
     0     16.3626226     23  1.900                                             
  local pseudopotential read in
  partial core-charges read in
  partial kinetic energy density read in
  atomic valenz-charges read in
  non local Contribution for L=           1  read in
    real space projection operators read in
  non local Contribution for L=           1  read in
    real space projection operators read in
  non local Contribution for L=           2  read in
    real space projection operators read in
  non local Contribution for L=           2  read in
    real space projection operators read in
  non local Contribution for L=           0  read in
    real space projection operators read in
  non local Contribution for L=           0  read in
    real space projection operators read in
    PAW grid and wavefunctions read in
 
   number of l-projection  operators is LMAX  =           6
   number of lm-projection operators is LMMAX =          18
 
  PAW_PBE Cu_pv 06Sep2000               :
 energy of atom  1       EATOM=-4120.1201
 kinetic energy error for atom=    0.1331 (will be added to EATOM!!)
  PAW_PBE Ni_pv 06Sep2000               :
 energy of atom  2       EATOM=-3501.1230
 kinetic energy error for atom=    0.1401 (will be added to EATOM!!)
 
 
 POSCAR:  Cu  Ni  fcc str #: 143                 
  positions in direct lattice
  No initial velocities read in
 exchange correlation table for  LEXCH =        8
   RHO(1)=    0.500       N(1)  =     2000
   RHO(2)=  100.500       N(2)  =     4000
 


--------------------------------------------------------------------------------------------------------


 ion  position               nearest neighbor table
   1  0.000  0.000  0.000-   2 2.50   7 2.50   2 2.50   7 2.50   6 2.50   7 2.50   2 2.50   3 2.50
                             4 2.50   5 2.50   3 2.50   6 2.50
   2  0.714  0.429  0.143-   7 2.50   1 2.50   1 2.50   7 2.50   3 2.50   5 2.50   4 2.50   1 2.50
                             3 2.50   6 2.50   4 2.50   3 2.50
   3  0.429  0.857  0.286-   6 2.50   5 2.50   4 2.50   4 2.50   5 2.50   2 2.50   1 2.50   4 2.50
                             2 2.50   7 2.50   1 2.50   2 2.50
   4  0.143  0.286  0.429-   5 2.50   6 2.50   3 2.50   3 2.50   5 2.50   6 2.50   7 2.50   3 2.50
                             2 2.50   1 2.50   2 2.50   5 2.50
   5  0.857  0.714  0.571-   4 2.50   3 2.50   6 2.50   6 2.50   4 2.50   3 2.50   2 2.50   6 2.50
                             7 2.50   1 2.50   7 2.50   4 2.50
   6  0.571  0.143  0.714-   3 2.50   4 2.50   5 2.50   5 2.50   7 2.50   4 2.50   1 2.50   5 2.50
                             7 2.50   2 2.50   1 2.50   7 2.50
   7  0.286  0.571  0.857-   2 2.50   1 2.50   1 2.50   2 2.50   4 2.50   6 2.50   5 2.50   1 2.50
                             3 2.50   6 2.50   5 2.50   6 2.50
 
  LATTYP: Found a base centered monoclinic cell.
 ALAT       =     7.8933199606
 B/A-ratio  =     0.4472135955
 C/A-ratio  =     1.1401754251
 COS(beta)  =    -0.7205766921
  
  Lattice vectors:
  
 A1 = (   1.7650000000,   3.5300000000,  -1.7650000000)
 A2 = (   1.7650000000,   3.5300000000,   1.7650000000)
 A3 = (   1.7650000000,  -8.8250000000,  -0.0000000000)


Analysis of symmetry for initial positions (statically):
=====================================================================
 Subroutine PRICEL returns:
 Original cell was already a primitive cell.
 

 Routine SETGRP: Setting up the symmetry group for a 
 base centered monoclinic supercell.


 Subroutine GETGRP returns: Found  4 space group operations
 (whereof  2 operations were pure point group operations)
 out of a pool of  4 trial point group operations.


The static configuration has the point symmetry C_1h.
 The point group associated with its full space group is C_2h.


Analysis of symmetry for dynamics (positions and initial velocities):
=====================================================================
 Subroutine PRICEL returns:
 Original cell was already a primitive cell.
 

 Routine SETGRP: Setting up the symmetry group for a 
 base centered monoclinic supercell.


 Subroutine GETGRP returns: Found  4 space group operations
 (whereof  2 operations were pure point group operations)
 out of a pool of  4 trial point group operations.


The dynamic configuration has the point symmetry C_1h.
 The point group associated with its full space group is C_2h.


 irot  :   1
 --------------------------------------------------------------------
 isymop:   1   0   0
           0   1   0
           0   0   1

 gtrans:     0.0000000     0.0000000     0.0000000

 ptrans:     0.0000000     0.0000000     0.0000000
 rotmap:
 (   1->   1)  (   2->   2)  (   3->   3)  (   4->   4)  (   5->   5) 
 (   6->   6)  (   7->   7) 


 irot  :   2
 --------------------------------------------------------------------
 isymop:  -1   1   0
           0   1   0
           0   0   1

 gtrans:     0.0000000     0.0000000     0.0000000

 ptrans:     0.0000000     0.0000000     0.0000000
 rotmap:
 (   1->   1)  (   2->   2)  (   3->   3)  (   4->   4)  (   5->   5) 
 (   6->   6)  (   7->   7) 


 irot  :   3
 --------------------------------------------------------------------
 isymop:  -1   0   0
           0  -1   0
           0   0  -1

 gtrans:     0.5714286     1.1428571    -0.2857143

 ptrans:     0.0000000     0.0000000     0.0000000
 rotmap:
 (   1->   6)  (   2->   5)  (   3->   4)  (   4->   3)  (   5->   2) 
 (   6->   1)  (   7->   7) 


 irot  :   4
 --------------------------------------------------------------------
 isymop:   1  -1   0
           0  -1   0
           0   0  -1

 gtrans:     0.5714286     1.1428571    -0.2857143

 ptrans:     0.0000000     0.0000000     0.0000000
 rotmap:
 (   1->   6)  (   2->   5)  (   3->   4)  (   4->   3)  (   5->   2) 
 (   6->   1)  (   7->   7) 
 
 
 KPOINTS: Server version 2017.11.28. K-point grid 
  k-points in reciprocal lattice
Space group operators:
 irot       det(A)        alpha          n_x          n_y          n_z        tau_x        tau_y        tau_z
    1     1.000000     0.000001     1.000000     0.000000     0.000000     0.000000     0.000000     0.000000
    2    -1.000000   180.000000     0.000000     0.000000     1.000000     0.000000     0.000000     0.000000
    3    -1.000000     0.000001     1.000000     0.000000     0.000000     0.571429     1.142857    -0.285714
    4     1.000000   180.000000     0.000000     0.000000     1.000000     0.571429     1.142857    -0.285714


--------------------------------------------------------------------------------------------------------




 Dimension of arrays:
   k-points           NKPTS =    336   k-points in BZ     NKDIM =    336   number of bands    NBANDS=     70
   number of dos      NEDOS =    301   number of ions     NIONS =      7
   non local maximal  LDIM  =      6   non local SUM 2l+1 LMDIM =     18
   total plane-waves  NPLWV =  24192
   max r-space proj   IRMAX =      1   max aug-charges    IRDMAX=   7137
   dimension x,y,z NGX =    24 NGY =   28 NGZ =   36
   dimension x,y,z NGXF=    48 NGYF=   56 NGZF=   72
   support grid    NGXF=    48 NGYF=   56 NGZF=   72
   ions per type =               6   1
 NGX,Y,Z   is equivalent  to a cutoff of  11.30, 10.77, 10.72 a.u.
 NGXF,Y,Z  is equivalent  to a cutoff of  22.61, 21.53, 21.45 a.u.


 I would recommend the setting:
   dimension x,y,z NGX =    22 NGY =   27 NGZ =   35
 SYSTEM =  AlTi                                    
 POSCAR =   Cu  Ni  fcc str #: 143                 

 Startparameter for this run:
   NWRITE =      2    write-flag & timer
   PREC   = accura    normal or accurate (medium, high low for compatibility)
   ISTART =      0    job   : 0-new  1-cont  2-samecut
   ICHARG =      2    charge: 1-file 2-atom 10-const
   ISPIN  =      1    spin polarized calculation?
   LNONCOLLINEAR =      F non collinear calculations
   LSORBIT =      F    spin-orbit coupling
   INIWAV =      1    electr: 0-lowe 1-rand  2-diag
   LASPH  =      F    aspherical Exc in radial PAW
   METAGGA=      F    non-selfconsistent MetaGGA calc.

 Electronic Relaxation 1
   ENCUT  =  368.6 eV  27.09 Ry    5.21 a.u.   5.53  6.77  8.74*2*pi/ulx,y,z
   ENINI  =  368.6     initial cutoff
   ENAUG  =  758.2 eV  augmentation charge cutoff
   NELM   =     60;   NELMIN=  2; NELMDL= -5     # of ELM steps 
   EDIFF  = 0.1E-05   stopping-criterion for ELM
   LREAL  =      F    real-space projection
   NLSPLINE    = F    spline interpolate recip. space projectors
   LCOMPAT=      F    compatible to vasp.4.4
   GGA_COMPAT  = T    GGA compatible to vasp.4.4-vasp.4.6
   LMAXPAW     = -100 max onsite density
   LMAXMIX     =    2 max onsite mixed and CHGCAR
   VOSKOWN=      0    Vosko Wilk Nusair interpolation
   ROPT   =    0.00000   0.00000
 Ionic relaxation
   EDIFFG = 0.1E-04   stopping-criterion for IOM
   NSW    =      0    number of steps for IOM
   NBLOCK =      1;   KBLOCK =      1    inner block; outer block 
   IBRION =     -1    ionic relax: 0-MD 1-quasi-New 2-CG
   NFREE  =      0    steps in history (QN), initial steepest desc. (CG)
   ISIF   =      2    stress and relaxation
   IWAVPR =      0    prediction:  0-non 1-charg 2-wave 3-comb
   ISYM   =      2    0-nonsym 1-usesym 2-fastsym
   LCORR  =      T    Harris-Foulkes like correction to forces

   POTIM  = 0.5000    time-step for ionic-motion
   TEIN   =    0.0    initial temperature
   TEBEG  =    0.0;   TEEND  =   0.0 temperature during run
   SMASS  =  -3.00    Nose mass-parameter (am)
   estimated Nose-frequenzy (Omega)   =  0.10E-29 period in steps =****** mass=  -0.285E-27a.u.
   SCALEE = 1.0000    scale energy and forces
   NPACO  =    256;   APACO  = 16.0  distance and # of slots for P.C.
   PSTRESS=    0.0 pullay stress

  Mass of Ions in am
   POMASS =  63.55 58.69
  Ionic Valenz
   ZVAL   =  17.00 16.00
  Atomic Wigner-Seitz radii
   RWIGS  =  -1.00 -1.00
  virtual crystal weights 
   VCA    =   1.00  1.00
   NELECT =     118.0000    total number of electrons
   NUPDOWN=      -1.0000    fix difference up-down

 DOS related values:
   EMIN   =  10.00;   EMAX   =-10.00  energy-range for DOS
   EFERMI =   0.00
   ISMEAR =     1;   SIGMA  =   0.10  broadening in eV -4-tet -1-fermi 0-gaus

 Electronic relaxation 2 (details)
   IALGO  =     38    algorithm
   LDIAG  =      T    sub-space diagonalisation (order eigenvalues)
   LSUBROT=      T    optimize rotation matrix (better conditioning)
   TURBO    =      0    0=normal 1=particle mesh
   IRESTART =      0    0=no restart 2=restart with 2 vectors
   NREBOOT  =      0    no. of reboots
   NMIN     =      0    reboot dimension
   EREF     =   0.00    reference energy to select bands
   IMIX   =      4    mixing-type and parameters
     AMIX     =   0.40;   BMIX     =  1.00
     AMIX_MAG =   1.60;   BMIX_MAG =  1.00
     AMIN     =   0.10
     WC   =   100.;   INIMIX=   1;  MIXPRE=   1;  MAXMIX= -45

 Intra band minimization:
   WEIMIN = 0.0000     energy-eigenvalue tresh-hold
   EBREAK =  0.36E-08  absolut break condition
   DEPER  =   0.30     relativ break condition  

   TIME   =   0.40     timestep for ELM

  volume/ion in A,a.u.               =      11.00        74.21
  Fermi-wavevector in a.u.,A,eV,Ry     =   1.887621  3.567086 48.479091  3.563113
  Thomas-Fermi vector in A             =   2.929620
 
 Write flags
   LWAVE  =      F    write WAVECAR
   LCHARG =      F    write CHGCAR
   LVTOT  =      F    write LOCPOT, total local potential
   LVHAR  =      F    write LOCPOT, Hartree potential only
   LELF   =      F    write electronic localiz. function (ELF)
   LORBIT =      0    0 simple, 1 ext, 2 COOP (PROOUT)


 Dipole corrections
   LMONO  =      F    monopole corrections only (constant potential shift)
   LDIPOL =      F    correct potential (dipole corrections)
   IDIPOL =      0    1-x, 2-y, 3-z, 4-all directions 
   EPSILON=  1.0000000 bulk dielectric constant

 Exchange correlation treatment:
   GGA     =    --    GGA type
   LEXCH   =     8    internal setting for exchange type
   VOSKOWN=      0    Vosko Wilk Nusair interpolation
   LHFCALC =     F    Hartree Fock is set to
   LHFONE  =     F    Hartree Fock one center treatment
   AEXX    =    0.0000 exact exchange contribution

 Linear response parameters
   LEPSILON=     F    determine dielectric tensor
   LRPA    =     F    only Hartree local field effects (RPA)
   LNABLA  =     F    use nabla operator in PAW spheres
   LVEL    =     F    velocity operator in full k-point grid
   LINTERFAST=   F  fast interpolation
   KINTER  =     0    interpolate to denser k-point grid
   CSHIFT  =0.1000    complex shift for real part using Kramers Kronig
   OMEGAMAX=  -1.0    maximum frequency
   DEG_THRESHOLD= 0.2000000E-02 threshold for treating states as degnerate
   RTIME   =    0.100 relaxation time in fs

 Orbital magnetization related:
   ORBITALMAG=     F  switch on orbital magnetization
   LCHIMAG   =     F  perturbation theory with respect to B field
   DQ        =  0.001000  dq finite difference perturbation B field



--------------------------------------------------------------------------------------------------------


 Static calculation
 charge density and potential will be updated during run
 non-spin polarized calculation
 Variant of blocked Davidson
 Davidson routine will perform the subspace rotation
 perform sub-space diagonalisation
    after iterative eigenvector-optimisation
 modified Broyden-mixing scheme, WC =      100.0
 initial mixing is a Kerker type mixing with AMIX =  0.4000 and BMIX =      1.0000
 Hartree-type preconditioning will be used
 using additional bands           11
 reciprocal scheme for non local part
 use partial core corrections
 calculate Harris-corrections to forces 
   (improved forces if not selfconsistent)
 use gradient corrections 
 use of overlap-Matrix (Vanderbilt PP)
 Methfessel and Paxton  Order N= 1 SIGMA  =   0.10


--------------------------------------------------------------------------------------------------------


  energy-cutoff  :      368.65
  volume of cell :       76.98
      direct lattice vectors                 reciprocal lattice vectors
     0.000000000  0.000000000  3.530000000     0.040469446  0.121408337  0.283286119
     1.765000000  3.530000000 -1.765000000     0.080938891  0.242816673  0.000000000
    -5.295000000  1.765000000  0.000000000    -0.161877782  0.080938891  0.000000000

  length of vectors
     3.530000000  4.323349396  5.581420070     0.310851710  0.255951247  0.180984863


 
 k-points in units of 2pi/SCALE and weight: Server version 2017.11.28. K-point grid 
   0.19196429  0.88839286  0.05000000       0.003
   0.14285714  0.92857143  0.10000000       0.003
   0.09375000  0.96875000  0.15000000       0.003
   0.04464286  1.00892857  0.20000000       0.003
  -0.00446429  1.04910714  0.25000000       0.003
  -0.05357143  1.08928571  0.30000000       0.003
  -0.10267857  1.12946429  0.35000000       0.003
  -0.15178571  1.16964286  0.40000000       0.003
  -0.20089286  1.20982143  0.45000000       0.003
  -0.25000000  1.25000000  0.50000000       0.003
   0.27232143  1.00446429  0.55000000       0.003
   0.22321429  1.04464286  0.60000000       0.003
   0.17410714  1.08482143  0.65000000       0.003
   0.12500000  1.12500000  0.70000000       0.003
   0.07589286  1.16517857  0.75000000       0.003
   0.02678571  1.20535714  0.80000000       0.003
  -0.02232143  1.24553571  0.85000000       0.003
  -0.07142857  1.28571429  0.90000000       0.003
  -0.12053571  1.32589286  0.95000000       0.003
  -0.31250000  0.93750000  0.00000000       0.002
   0.20982143  0.69196429  0.05000000       0.003
   0.16071429  0.73214286  0.10000000       0.003
   0.11160714  0.77232143  0.15000000       0.003
   0.06250000  0.81250000  0.20000000       0.003
   0.01339286  0.85267857  0.25000000       0.003
  -0.03571429  0.89285714  0.30000000       0.003
  -0.08482143  0.93303571  0.35000000       0.003
  -0.13392857  0.97321429  0.40000000       0.003
  -0.18303571  1.01339286  0.45000000       0.003
  -0.23214286  1.05357143  0.50000000       0.003
  -0.28125000  1.09375000  0.55000000       0.003
   0.24107143  0.84821429  0.60000000       0.003
   0.19196429  0.88839286  0.65000000       0.003
   0.14285714  0.92857143  0.70000000       0.003
   0.09375000  0.96875000  0.75000000       0.003
   0.04464286  1.00892857  0.80000000       0.003
  -0.00446429  1.04910714  0.85000000       0.003
  -0.05357143  1.08928571  0.90000000       0.003
  -0.10267857  1.12946429  0.95000000       0.003
  -0.29464286  0.74107143  0.00000000       0.002
  -0.34375000  0.78125000  0.05000000       0.003
  -0.39285714  0.82142857  0.10000000       0.003
   0.12946429  0.57589286  0.15000000       0.003
   0.08035714  0.61607143  0.20000000       0.003
   0.03125000  0.65625000  0.25000000       0.003
  -0.06696429  0.73660714  0.35000000       0.003
  -0.11607143  0.77678571  0.40000000       0.003
  -0.16517857  0.81696429  0.45000000       0.003
  -0.21428571  0.85714286  0.50000000       0.003
  -0.26339286  0.89732143  0.55000000       0.003
  -0.31250000  0.93750000  0.60000000       0.003
   0.20982143  0.69196429  0.65000000       0.003
   0.16071429  0.73214286  0.70000000       0.003
   0.11160714  0.77232143  0.75000000       0.003
   0.06250000  0.81250000  0.80000000       0.003
   0.01339286  0.85267857  0.85000000       0.003
  -0.03571429  0.89285714  0.90000000       0.003
  -0.08482143  0.93303571  0.95000000       0.003
  -0.27678571  0.54464286  0.00000000       0.002
  -0.32589286  0.58482143  0.05000000       0.003
  -0.37500000  0.62500000  0.10000000       0.003
  -0.42410714  0.66517857  0.15000000       0.003
   0.09821429  0.41964286  0.20000000       0.003
   0.04910714  0.45982143  0.25000000       0.003
  -0.04910714  0.54017857  0.35000000       0.003
  -0.09821429  0.58035714  0.40000000       0.003
  -0.14732143  0.62053571  0.45000000       0.003
  -0.19642857  0.66071429  0.50000000       0.003
  -0.24553571  0.70089286  0.55000000       0.003
  -0.34375000  0.78125000  0.65000000       0.003
  -0.39285714  0.82142857  0.70000000       0.003
   0.12946429  0.57589286  0.75000000       0.003
   0.08035714  0.61607143  0.80000000       0.003
   0.03125000  0.65625000  0.85000000       0.003
  -0.01785714  0.69642857  0.90000000       0.003
  -0.06696429  0.73660714  0.95000000       0.003
  -0.25892857  0.34821429  0.00000000       0.002
  -0.30803571  0.38839286  0.05000000       0.003
  -0.35714286  0.42857143  0.10000000       0.003
  -0.40625000  0.46875000  0.15000000       0.003
  -0.45535714  0.50892857  0.20000000       0.003
   0.06696429  0.26339286  0.25000000       0.003
  -0.03125000  0.34375000  0.35000000       0.003
  -0.08035714  0.38392857  0.40000000       0.003
  -0.12946429  0.42410714  0.45000000       0.003
  -0.17857143  0.46428571  0.50000000       0.003
  -0.22767857  0.50446429  0.55000000       0.003
  -0.32589286  0.58482143  0.65000000       0.003
  -0.37500000  0.62500000  0.70000000       0.003
  -0.42410714  0.66517857  0.75000000       0.003
   0.09821429  0.41964286  0.80000000       0.003
   0.04910714  0.45982143  0.85000000       0.003
  -0.04910714  0.54017857  0.95000000       0.003
  -0.24107143  0.15178571  0.00000000       0.002
  -0.29017857  0.19196429  0.05000000       0.003
  -0.33928571  0.23214286  0.10000000       0.003
  -0.38839286  0.27232143  0.15000000       0.003
  -0.15178571  1.16964286  0.20000000       0.003
  -0.20089286  1.20982143  0.25000000       0.003
   0.27232143  1.00446429  0.35000000       0.003
   0.22321429  1.04464286  0.40000000       0.003
   0.17410714  1.08482143  0.45000000       0.003
   0.12500000  1.12500000  0.50000000       0.003
   0.07589286  1.16517857  0.55000000       0.003
  -0.02232143  1.24553571  0.65000000       0.003
  -0.07142857  1.28571429  0.70000000       0.003
  -0.12053571  1.32589286  0.75000000       0.003
  -0.16964286  1.36607143  0.80000000       0.003
   0.35267857  1.12053571  0.85000000       0.003
   0.25446429  1.20089286  0.95000000       0.003
   0.06250000  0.81250000  0.00000000       0.002
   0.01339286  0.85267857  0.05000000       0.003
  -0.03571429  0.89285714  0.10000000       0.003
  -0.08482143  0.93303571  0.15000000       0.003
  -0.13392857  0.97321429  0.20000000       0.003
  -0.18303571  1.01339286  0.25000000       0.003
  -0.28125000  1.09375000  0.35000000       0.003
   0.24107143  0.84821429  0.40000000       0.003
   0.19196429  0.88839286  0.45000000       0.003
   0.14285714  0.92857143  0.50000000       0.003
   0.09375000  0.96875000  0.55000000       0.003
  -0.00446429  1.04910714  0.65000000       0.003
  -0.05357143  1.08928571  0.70000000       0.003
  -0.10267857  1.12946429  0.75000000       0.003
  -0.15178571  1.16964286  0.80000000       0.003
  -0.20089286  1.20982143  0.85000000       0.003
   0.27232143  1.00446429  0.95000000       0.003
   0.08035714  0.61607143  0.00000000       0.002
   0.03125000  0.65625000  0.05000000       0.003
  -0.01785714  0.69642857  0.10000000       0.003
  -0.06696429  0.73660714  0.15000000       0.003
  -0.16517857  0.81696429  0.25000000       0.003
  -0.26339286  0.89732143  0.35000000       0.003
  -0.31250000  0.93750000  0.40000000       0.003
   0.20982143  0.69196429  0.45000000       0.003
   0.16071429  0.73214286  0.50000000       0.003
   0.11160714  0.77232143  0.55000000       0.003
   0.01339286  0.85267857  0.65000000       0.003
  -0.03571429  0.89285714  0.70000000       0.003
  -0.08482143  0.93303571  0.75000000       0.003
  -0.13392857  0.97321429  0.80000000       0.003
  -0.18303571  1.01339286  0.85000000       0.003
  -0.28125000  1.09375000  0.95000000       0.003
   0.09821429  0.41964286  0.00000000       0.002
   0.04910714  0.45982143  0.05000000       0.003
   0.00000000  0.50000000  0.10000000       0.003
  -0.04910714  0.54017857  0.15000000       0.003
  -0.14732143  0.62053571  0.25000000       0.003
  -0.24553571  0.70089286  0.35000000       0.003
  -0.29464286  0.74107143  0.40000000       0.003
  -0.34375000  0.78125000  0.45000000       0.003
   0.12946429  0.57589286  0.55000000       0.003
   0.03125000  0.65625000  0.65000000       0.003
  -0.01785714  0.69642857  0.70000000       0.003
  -0.06696429  0.73660714  0.75000000       0.003
  -0.11607143  0.77678571  0.80000000       0.003
  -0.16517857  0.81696429  0.85000000       0.003
  -0.26339286  0.89732143  0.95000000       0.003
  -0.45535714  0.50892857  0.00000000       0.002
   0.06696429  0.26339286  0.05000000       0.003
   0.01785714  0.30357143  0.10000000       0.003
  -0.03125000  0.34375000  0.15000000       0.003
  -0.12946429  0.42410714  0.25000000       0.003
  -0.22767857  0.50446429  0.35000000       0.003
  -0.27678571  0.54464286  0.40000000       0.003
  -0.32589286  0.58482143  0.45000000       0.003
  -0.42410714  0.66517857  0.55000000       0.003
   0.04910714  0.45982143  0.65000000       0.003
   0.00000000  0.50000000  0.70000000       0.003
  -0.04910714  0.54017857  0.75000000       0.003
  -0.14732143  0.62053571  0.85000000       0.003
  -0.24553571  0.70089286  0.95000000       0.003
  -0.43750000  0.31250000  0.00000000       0.002
  -0.48660714  0.35267857  0.05000000       0.003
  -0.53571429  0.39285714  0.10000000       0.003
  -0.01339286  0.14732143  0.15000000       0.003
  -0.11160714  0.22767857  0.25000000       0.003
  -0.20982143  0.30803571  0.35000000       0.003
  -0.25892857  0.34821429  0.40000000       0.003
  -0.30803571  0.38839286  0.45000000       0.003
  -0.12053571  1.32589286  0.55000000       0.003
   0.35267857  1.12053571  0.65000000       0.003
   0.30357143  1.16071429  0.70000000       0.003
   0.25446429  1.20089286  0.75000000       0.003
   0.15625000  1.28125000  0.85000000       0.003
   0.05803571  1.36160714  0.95000000       0.003
  -0.13392857  0.97321429  0.00000000       0.002
  -0.18303571  1.01339286  0.05000000       0.003
  -0.23214286  1.05357143  0.10000000       0.003
  -0.28125000  1.09375000  0.15000000       0.003
   0.19196429  0.88839286  0.25000000       0.003
   0.09375000  0.96875000  0.35000000       0.003
   0.04464286  1.00892857  0.40000000       0.003
  -0.00446429  1.04910714  0.45000000       0.003
  -0.10267857  1.12946429  0.55000000       0.003
  -0.20089286  1.20982143  0.65000000       0.003
  -0.25000000  1.25000000  0.70000000       0.003
   0.27232143  1.00446429  0.75000000       0.003
   0.17410714  1.08482143  0.85000000       0.003
   0.07589286  1.16517857  0.95000000       0.003
  -0.11607143  0.77678571  0.00000000       0.002
  -0.16517857  0.81696429  0.05000000       0.003
  -0.26339286  0.89732143  0.15000000       0.003
   0.20982143  0.69196429  0.25000000       0.003
   0.11160714  0.77232143  0.35000000       0.003
   0.06250000  0.81250000  0.40000000       0.003
   0.01339286  0.85267857  0.45000000       0.003
  -0.08482143  0.93303571  0.55000000       0.003
  -0.18303571  1.01339286  0.65000000       0.003
  -0.23214286  1.05357143  0.70000000       0.003
  -0.28125000  1.09375000  0.75000000       0.003
   0.19196429  0.88839286  0.85000000       0.003
   0.09375000  0.96875000  0.95000000       0.003
  -0.09821429  0.58035714  0.00000000       0.002
  -0.14732143  0.62053571  0.05000000       0.003
  -0.24553571  0.70089286  0.15000000       0.003
  -0.34375000  0.78125000  0.25000000       0.003
   0.12946429  0.57589286  0.35000000       0.003
   0.03125000  0.65625000  0.45000000       0.003
  -0.06696429  0.73660714  0.55000000       0.003
  -0.16517857  0.81696429  0.65000000       0.003
  -0.21428571  0.85714286  0.70000000       0.003
  -0.26339286  0.89732143  0.75000000       0.003
   0.20982143  0.69196429  0.85000000       0.003
   0.11160714  0.77232143  0.95000000       0.003
  -0.08035714  0.38392857  0.00000000       0.002
  -0.12946429  0.42410714  0.05000000       0.003
  -0.22767857  0.50446429  0.15000000       0.003
  -0.32589286  0.58482143  0.25000000       0.003
  -0.42410714  0.66517857  0.35000000       0.003
   0.04910714  0.45982143  0.45000000       0.003
  -0.04910714  0.54017857  0.55000000       0.003
  -0.14732143  0.62053571  0.65000000       0.003
  -0.24553571  0.70089286  0.75000000       0.003
  -0.34375000  0.78125000  0.85000000       0.003
   0.12946429  0.57589286  0.95000000       0.003
  -0.06250000  0.18750000  0.00000000       0.002
  -0.11160714  0.22767857  0.05000000       0.003
  -0.20982143  0.30803571  0.15000000       0.003
  -0.30803571  0.38839286  0.25000000       0.003
  -0.40625000  0.46875000  0.35000000       0.003
   0.06696429  0.26339286  0.45000000       0.003
  -0.03125000  0.34375000  0.55000000       0.003
  -0.12946429  0.42410714  0.65000000       0.003
  -0.22767857  0.50446429  0.75000000       0.003
  -0.04017857  1.44196429  0.85000000       0.003
  -0.13839286  1.52232143  0.95000000       0.003
   0.24107143  0.84821429  0.00000000       0.002
  -0.24107143  1.15178571  0.10000000       0.003
   0.23214286  0.94642857  0.20000000       0.003
   0.13392857  1.02678571  0.30000000       0.003
   0.03571429  1.10714286  0.40000000       0.003
  -0.06250000  1.18750000  0.50000000       0.003
  -0.16071429  1.26785714  0.60000000       0.003
   0.31250000  1.06250000  0.70000000       0.003
   0.21428571  1.14285714  0.80000000       0.003
   0.11607143  1.22321429  0.90000000       0.003
  -0.12500000  0.87500000  0.00000000       0.002
  -0.22321429  0.95535714  0.10000000       0.003
  -0.32142857  1.03571429  0.20000000       0.003
   0.15178571  0.83035714  0.30000000       0.003
   0.05357143  0.91071429  0.40000000       0.003
  -0.04464286  0.99107143  0.50000000       0.003
  -0.14285714  1.07142857  0.60000000       0.003
  -0.24107143  1.15178571  0.70000000       0.003
   0.23214286  0.94642857  0.80000000       0.003
   0.13392857  1.02678571  0.90000000       0.003
  -0.10714286  0.67857143  0.00000000       0.002
  -0.20535714  0.75892857  0.10000000       0.003
  -0.30357143  0.83928571  0.20000000       0.003
   0.07142857  0.71428571  0.40000000       0.003
  -0.02678571  0.79464286  0.50000000       0.003
  -0.12500000  0.87500000  0.60000000       0.003
  -0.22321429  0.95535714  0.70000000       0.003
  -0.32142857  1.03571429  0.80000000       0.003
   0.15178571  0.83035714  0.90000000       0.003
  -0.08928571  0.48214286  0.00000000       0.002
  -0.18750000  0.56250000  0.10000000       0.003
  -0.28571429  0.64285714  0.20000000       0.003
   0.08928571  0.51785714  0.40000000       0.003
  -0.00892857  0.59821429  0.50000000       0.003
  -0.20535714  0.75892857  0.70000000       0.003
  -0.30357143  0.83928571  0.80000000       0.003
   0.16964286  0.63392857  0.90000000       0.003
  -0.07142857  0.28571429  0.00000000       0.002
  -0.16964286  0.36607143  0.10000000       0.003
  -0.26785714  0.44642857  0.20000000       0.003
  -0.46428571  0.60714286  0.40000000       0.003
   0.00892857  0.40178571  0.50000000       0.003
  -0.18750000  0.56250000  0.70000000       0.003
  -0.28571429  0.64285714  0.80000000       0.003
  -0.05357143  0.08928571  0.00000000       0.002
  -0.15178571  0.16964286  0.10000000       0.003
  -0.25000000  0.25000000  0.20000000       0.003
  -0.16071429  1.26785714  0.40000000       0.003
   0.31250000  1.06250000  0.50000000       0.003
   0.11607143  1.22321429  0.70000000       0.003
   0.01785714  1.30357143  0.80000000       0.003
  -0.32142857  1.03571429  0.00000000       0.002
   0.15178571  0.83035714  0.10000000       0.003
   0.05357143  0.91071429  0.20000000       0.003
  -0.14285714  1.07142857  0.40000000       0.003
  -0.24107143  1.15178571  0.50000000       0.003
   0.13392857  1.02678571  0.70000000       0.003
   0.03571429  1.10714286  0.80000000       0.003
  -0.30357143  0.83928571  0.00000000       0.002
   0.16964286  0.63392857  0.10000000       0.003
  -0.12500000  0.87500000  0.40000000       0.003
  -0.22321429  0.95535714  0.50000000       0.003
   0.15178571  0.83035714  0.70000000       0.003
   0.05357143  0.91071429  0.80000000       0.003
  -0.28571429  0.64285714  0.00000000       0.002
  -0.38392857  0.72321429  0.10000000       0.003
  -0.10714286  0.67857143  0.40000000       0.003
   0.16964286  0.63392857  0.70000000       0.003
   0.07142857  0.71428571  0.80000000       0.003
  -0.26785714  0.44642857  0.00000000       0.002
  -0.36607143  0.52678571  0.10000000       0.003
  -0.08928571  0.48214286  0.40000000       0.003
  -0.38392857  0.72321429  0.70000000       0.003
  -0.25000000  0.25000000  0.00000000       0.002
  -0.34821429  0.33035714  0.10000000       0.003
  -0.07142857  0.28571429  0.40000000       0.003
  -0.08035714  1.38392857  0.70000000       0.003
   0.05357143  0.91071429  0.00000000       0.002
  -0.04464286  0.99107143  0.10000000       0.003
   0.23214286  0.94642857  0.40000000       0.003
  -0.06250000  1.18750000  0.70000000       0.003
   0.07142857  0.71428571  0.00000000       0.002
  -0.32142857  1.03571429  0.40000000       0.003
  -0.04464286  0.99107143  0.70000000       0.003
   0.08928571  0.51785714  0.00000000       0.002
  -0.02678571  0.79464286  0.70000000       0.003
  -0.46428571  0.60714286  0.00000000       0.002
  -0.44642857  0.41071429  0.00000000       0.002
  -0.42857143  0.21428571  0.00000000       0.002
 
 k-points in reciprocal lattice and weights: Server version 2017.11.28. K-point grid 
   0.05000000  0.95937500  0.15625000       0.003
   0.10000000  0.95000000  0.25000000       0.003
   0.15000000  0.94062500  0.34375000       0.003
   0.20000000  0.93125000  0.43750000       0.003
   0.25000000  0.92187500  0.53125000       0.003
   0.30000000  0.91250000  0.62500000       0.003
   0.35000000  0.90312500  0.71875000       0.003
   0.40000000  0.89375000  0.81250000       0.003
   0.45000000  0.88437500  0.90625000       0.003
   0.50000000  0.87500000  1.00000000       0.003
   0.55000000  0.86562500  0.09375000       0.003
   0.60000000  0.85625000  0.18750000       0.003
   0.65000000  0.84687500  0.28125000       0.003
   0.70000000  0.83750000  0.37500000       0.003
   0.75000000  0.82812500  0.46875000       0.003
   0.80000000  0.81875000  0.56250000       0.003
   0.85000000  0.80937500  0.65625000       0.003
   0.90000000  0.80000000  0.75000000       0.003
   0.95000000  0.79062500  0.84375000       0.003
   0.00000000  0.78125000  0.93750000       0.002
   0.05000000  0.77187500  0.03125000       0.003
   0.10000000  0.76250000  0.12500000       0.003
   0.15000000  0.75312500  0.21875000       0.003
   0.20000000  0.74375000  0.31250000       0.003
   0.25000000  0.73437500  0.40625000       0.003
   0.30000000  0.72500000  0.50000000       0.003
   0.35000000  0.71562500  0.59375000       0.003
   0.40000000  0.70625000  0.68750000       0.003
   0.45000000  0.69687500  0.78125000       0.003
   0.50000000  0.68750000  0.87500000       0.003
   0.55000000  0.67812500  0.96875000       0.003
   0.60000000  0.66875000  0.06250000       0.003
   0.65000000  0.65937500  0.15625000       0.003
   0.70000000  0.65000000  0.25000000       0.003
   0.75000000  0.64062500  0.34375000       0.003
   0.80000000  0.63125000  0.43750000       0.003
   0.85000000  0.62187500  0.53125000       0.003
   0.90000000  0.61250000  0.62500000       0.003
   0.95000000  0.60312500  0.71875000       0.003
   0.00000000  0.59375000  0.81250000       0.002
   0.05000000  0.58437500  0.90625000       0.003
   0.10000000  0.57500000  1.00000000       0.003
   0.15000000  0.56562500  0.09375000       0.003
   0.20000000  0.55625000  0.18750000       0.003
   0.25000000  0.54687500  0.28125000       0.003
   0.35000000  0.52812500  0.46875000       0.003
   0.40000000  0.51875000  0.56250000       0.003
   0.45000000  0.50937500  0.65625000       0.003
   0.50000000  0.50000000  0.75000000       0.003
   0.55000000  0.49062500  0.84375000       0.003
   0.60000000  0.48125000  0.93750000       0.003
   0.65000000  0.47187500  0.03125000       0.003
   0.70000000  0.46250000  0.12500000       0.003
   0.75000000  0.45312500  0.21875000       0.003
   0.80000000  0.44375000  0.31250000       0.003
   0.85000000  0.43437500  0.40625000       0.003
   0.90000000  0.42500000  0.50000000       0.003
   0.95000000  0.41562500  0.59375000       0.003
   0.00000000  0.40625000  0.68750000       0.002
   0.05000000  0.39687500  0.78125000       0.003
   0.10000000  0.38750000  0.87500000       0.003
   0.15000000  0.37812500  0.96875000       0.003
   0.20000000  0.36875000  0.06250000       0.003
   0.25000000  0.35937500  0.15625000       0.003
   0.35000000  0.34062500  0.34375000       0.003
   0.40000000  0.33125000  0.43750000       0.003
   0.45000000  0.32187500  0.53125000       0.003
   0.50000000  0.31250000  0.62500000       0.003
   0.55000000  0.30312500  0.71875000       0.003
   0.65000000  0.28437500  0.90625000       0.003
   0.70000000  0.27500000  1.00000000       0.003
   0.75000000  0.26562500  0.09375000       0.003
   0.80000000  0.25625000  0.18750000       0.003
   0.85000000  0.24687500  0.28125000       0.003
   0.90000000  0.23750000  0.37500000       0.003
   0.95000000  0.22812500  0.46875000       0.003
   0.00000000  0.21875000  0.56250000       0.002
   0.05000000  0.20937500  0.65625000       0.003
   0.10000000  0.20000000  0.75000000       0.003
   0.15000000  0.19062500  0.84375000       0.003
   0.20000000  0.18125000  0.93750000       0.003
   0.25000000  0.17187500  0.03125000       0.003
   0.35000000  0.15312500  0.21875000       0.003
   0.40000000  0.14375000  0.31250000       0.003
   0.45000000  0.13437500  0.40625000       0.003
   0.50000000  0.12500000  0.50000000       0.003
   0.55000000  0.11562500  0.59375000       0.003
   0.65000000  0.09687500  0.78125000       0.003
   0.70000000  0.08750000  0.87500000       0.003
   0.75000000  0.07812500  0.96875000       0.003
   0.80000000  0.06875000  0.06250000       0.003
   0.85000000  0.05937500  0.15625000       0.003
   0.95000000  0.04062500  0.34375000       0.003
   0.00000000  0.03125000  0.43750000       0.002
   0.05000000  0.02187500  0.53125000       0.003
   0.10000000  0.01250000  0.62500000       0.003
   0.15000000  0.00312500  0.71875000       0.003
   0.20000000  0.99375000  0.81250000       0.003
   0.25000000  0.98437500  0.90625000       0.003
   0.35000000  0.96562500  0.09375000       0.003
   0.40000000  0.95625000  0.18750000       0.003
   0.45000000  0.94687500  0.28125000       0.003
   0.50000000  0.93750000  0.37500000       0.003
   0.55000000  0.92812500  0.46875000       0.003
   0.65000000  0.90937500  0.65625000       0.003
   0.70000000  0.90000000  0.75000000       0.003
   0.75000000  0.89062500  0.84375000       0.003
   0.80000000  0.88125000  0.93750000       0.003
   0.85000000  0.87187500  0.03125000       0.003
   0.95000000  0.85312500  0.21875000       0.003
   0.00000000  0.84375000  0.31250000       0.002
   0.05000000  0.83437500  0.40625000       0.003
   0.10000000  0.82500000  0.50000000       0.003
   0.15000000  0.81562500  0.59375000       0.003
   0.20000000  0.80625000  0.68750000       0.003
   0.25000000  0.79687500  0.78125000       0.003
   0.35000000  0.77812500  0.96875000       0.003
   0.40000000  0.76875000  0.06250000       0.003
   0.45000000  0.75937500  0.15625000       0.003
   0.50000000  0.75000000  0.25000000       0.003
   0.55000000  0.74062500  0.34375000       0.003
   0.65000000  0.72187500  0.53125000       0.003
   0.70000000  0.71250000  0.62500000       0.003
   0.75000000  0.70312500  0.71875000       0.003
   0.80000000  0.69375000  0.81250000       0.003
   0.85000000  0.68437500  0.90625000       0.003
   0.95000000  0.66562500  0.09375000       0.003
   0.00000000  0.65625000  0.18750000       0.002
   0.05000000  0.64687500  0.28125000       0.003
   0.10000000  0.63750000  0.37500000       0.003
   0.15000000  0.62812500  0.46875000       0.003
   0.25000000  0.60937500  0.65625000       0.003
   0.35000000  0.59062500  0.84375000       0.003
   0.40000000  0.58125000  0.93750000       0.003
   0.45000000  0.57187500  0.03125000       0.003
   0.50000000  0.56250000  0.12500000       0.003
   0.55000000  0.55312500  0.21875000       0.003
   0.65000000  0.53437500  0.40625000       0.003
   0.70000000  0.52500000  0.50000000       0.003
   0.75000000  0.51562500  0.59375000       0.003
   0.80000000  0.50625000  0.68750000       0.003
   0.85000000  0.49687500  0.78125000       0.003
   0.95000000  0.47812500  0.96875000       0.003
   0.00000000  0.46875000  0.06250000       0.002
   0.05000000  0.45937500  0.15625000       0.003
   0.10000000  0.45000000  0.25000000       0.003
   0.15000000  0.44062500  0.34375000       0.003
   0.25000000  0.42187500  0.53125000       0.003
   0.35000000  0.40312500  0.71875000       0.003
   0.40000000  0.39375000  0.81250000       0.003
   0.45000000  0.38437500  0.90625000       0.003
   0.55000000  0.36562500  0.09375000       0.003
   0.65000000  0.34687500  0.28125000       0.003
   0.70000000  0.33750000  0.37500000       0.003
   0.75000000  0.32812500  0.46875000       0.003
   0.80000000  0.31875000  0.56250000       0.003
   0.85000000  0.30937500  0.65625000       0.003
   0.95000000  0.29062500  0.84375000       0.003
   0.00000000  0.28125000  0.93750000       0.002
   0.05000000  0.27187500  0.03125000       0.003
   0.10000000  0.26250000  0.12500000       0.003
   0.15000000  0.25312500  0.21875000       0.003
   0.25000000  0.23437500  0.40625000       0.003
   0.35000000  0.21562500  0.59375000       0.003
   0.40000000  0.20625000  0.68750000       0.003
   0.45000000  0.19687500  0.78125000       0.003
   0.55000000  0.17812500  0.96875000       0.003
   0.65000000  0.15937500  0.15625000       0.003
   0.70000000  0.15000000  0.25000000       0.003
   0.75000000  0.14062500  0.34375000       0.003
   0.85000000  0.12187500  0.53125000       0.003
   0.95000000  0.10312500  0.71875000       0.003
   0.00000000  0.09375000  0.81250000       0.002
   0.05000000  0.08437500  0.90625000       0.003
   0.10000000  0.07500000  1.00000000       0.003
   0.15000000  0.06562500  0.09375000       0.003
   0.25000000  0.04687500  0.28125000       0.003
   0.35000000  0.02812500  0.46875000       0.003
   0.40000000  0.01875000  0.56250000       0.003
   0.45000000  0.00937500  0.65625000       0.003
   0.55000000  0.99062500  0.84375000       0.003
   0.65000000  0.97187500  0.03125000       0.003
   0.70000000  0.96250000  0.12500000       0.003
   0.75000000  0.95312500  0.21875000       0.003
   0.85000000  0.93437500  0.40625000       0.003
   0.95000000  0.91562500  0.59375000       0.003
   0.00000000  0.90625000  0.68750000       0.002
   0.05000000  0.89687500  0.78125000       0.003
   0.10000000  0.88750000  0.87500000       0.003
   0.15000000  0.87812500  0.96875000       0.003
   0.25000000  0.85937500  0.15625000       0.003
   0.35000000  0.84062500  0.34375000       0.003
   0.40000000  0.83125000  0.43750000       0.003
   0.45000000  0.82187500  0.53125000       0.003
   0.55000000  0.80312500  0.71875000       0.003
   0.65000000  0.78437500  0.90625000       0.003
   0.70000000  0.77500000  1.00000000       0.003
   0.75000000  0.76562500  0.09375000       0.003
   0.85000000  0.74687500  0.28125000       0.003
   0.95000000  0.72812500  0.46875000       0.003
   0.00000000  0.71875000  0.56250000       0.002
   0.05000000  0.70937500  0.65625000       0.003
   0.15000000  0.69062500  0.84375000       0.003
   0.25000000  0.67187500  0.03125000       0.003
   0.35000000  0.65312500  0.21875000       0.003
   0.40000000  0.64375000  0.31250000       0.003
   0.45000000  0.63437500  0.40625000       0.003
   0.55000000  0.61562500  0.59375000       0.003
   0.65000000  0.59687500  0.78125000       0.003
   0.70000000  0.58750000  0.87500000       0.003
   0.75000000  0.57812500  0.96875000       0.003
   0.85000000  0.55937500  0.15625000       0.003
   0.95000000  0.54062500  0.34375000       0.003
   0.00000000  0.53125000  0.43750000       0.002
   0.05000000  0.52187500  0.53125000       0.003
   0.15000000  0.50312500  0.71875000       0.003
   0.25000000  0.48437500  0.90625000       0.003
   0.35000000  0.46562500  0.09375000       0.003
   0.45000000  0.44687500  0.28125000       0.003
   0.55000000  0.42812500  0.46875000       0.003
   0.65000000  0.40937500  0.65625000       0.003
   0.70000000  0.40000000  0.75000000       0.003
   0.75000000  0.39062500  0.84375000       0.003
   0.85000000  0.37187500  0.03125000       0.003
   0.95000000  0.35312500  0.21875000       0.003
   0.00000000  0.34375000  0.31250000       0.002
   0.05000000  0.33437500  0.40625000       0.003
   0.15000000  0.31562500  0.59375000       0.003
   0.25000000  0.29687500  0.78125000       0.003
   0.35000000  0.27812500  0.96875000       0.003
   0.45000000  0.25937500  0.15625000       0.003
   0.55000000  0.24062500  0.34375000       0.003
   0.65000000  0.22187500  0.53125000       0.003
   0.75000000  0.20312500  0.71875000       0.003
   0.85000000  0.18437500  0.90625000       0.003
   0.95000000  0.16562500  0.09375000       0.003
   0.00000000  0.15625000  0.18750000       0.002
   0.05000000  0.14687500  0.28125000       0.003
   0.15000000  0.12812500  0.46875000       0.003
   0.25000000  0.10937500  0.65625000       0.003
   0.35000000  0.09062500  0.84375000       0.003
   0.45000000  0.07187500  0.03125000       0.003
   0.55000000  0.05312500  0.21875000       0.003
   0.65000000  0.03437500  0.40625000       0.003
   0.75000000  0.01562500  0.59375000       0.003
   0.85000000  0.99687500  0.78125000       0.003
   0.95000000  0.97812500  0.96875000       0.003
   0.00000000  0.96875000  0.06250000       0.002
   0.10000000  0.98125000  0.93750000       0.003
   0.20000000  0.96250000  0.12500000       0.003
   0.30000000  0.94375000  0.31250000       0.003
   0.40000000  0.92500000  0.50000000       0.003
   0.50000000  0.90625000  0.68750000       0.003
   0.60000000  0.88750000  0.87500000       0.003
   0.70000000  0.86875000  0.06250000       0.003
   0.80000000  0.85000000  0.25000000       0.003
   0.90000000  0.83125000  0.43750000       0.003
   0.00000000  0.81250000  0.62500000       0.002
   0.10000000  0.79375000  0.81250000       0.003
   0.20000000  0.77500000  1.00000000       0.003
   0.30000000  0.75625000  0.18750000       0.003
   0.40000000  0.73750000  0.37500000       0.003
   0.50000000  0.71875000  0.56250000       0.003
   0.60000000  0.70000000  0.75000000       0.003
   0.70000000  0.68125000  0.93750000       0.003
   0.80000000  0.66250000  0.12500000       0.003
   0.90000000  0.64375000  0.31250000       0.003
   0.00000000  0.62500000  0.50000000       0.002
   0.10000000  0.60625000  0.68750000       0.003
   0.20000000  0.58750000  0.87500000       0.003
   0.40000000  0.55000000  0.25000000       0.003
   0.50000000  0.53125000  0.43750000       0.003
   0.60000000  0.51250000  0.62500000       0.003
   0.70000000  0.49375000  0.81250000       0.003
   0.80000000  0.47500000  1.00000000       0.003
   0.90000000  0.45625000  0.18750000       0.003
   0.00000000  0.43750000  0.37500000       0.002
   0.10000000  0.41875000  0.56250000       0.003
   0.20000000  0.40000000  0.75000000       0.003
   0.40000000  0.36250000  0.12500000       0.003
   0.50000000  0.34375000  0.31250000       0.003
   0.70000000  0.30625000  0.68750000       0.003
   0.80000000  0.28750000  0.87500000       0.003
   0.90000000  0.26875000  0.06250000       0.003
   0.00000000  0.25000000  0.25000000       0.002
   0.10000000  0.23125000  0.43750000       0.003
   0.20000000  0.21250000  0.62500000       0.003
   0.40000000  0.17500000  1.00000000       0.003
   0.50000000  0.15625000  0.18750000       0.003
   0.70000000  0.11875000  0.56250000       0.003
   0.80000000  0.10000000  0.75000000       0.003
   0.00000000  0.06250000  0.12500000       0.002
   0.10000000  0.04375000  0.31250000       0.003
   0.20000000  0.02500000  0.50000000       0.003
   0.40000000  0.98750000  0.87500000       0.003
   0.50000000  0.96875000  0.06250000       0.003
   0.70000000  0.93125000  0.43750000       0.003
   0.80000000  0.91250000  0.62500000       0.003
   0.00000000  0.87500000  1.00000000       0.002
   0.10000000  0.85625000  0.18750000       0.003
   0.20000000  0.83750000  0.37500000       0.003
   0.40000000  0.80000000  0.75000000       0.003
   0.50000000  0.78125000  0.93750000       0.003
   0.70000000  0.74375000  0.31250000       0.003
   0.80000000  0.72500000  0.50000000       0.003
   0.00000000  0.68750000  0.87500000       0.002
   0.10000000  0.66875000  0.06250000       0.003
   0.40000000  0.61250000  0.62500000       0.003
   0.50000000  0.59375000  0.81250000       0.003
   0.70000000  0.55625000  0.18750000       0.003
   0.80000000  0.53750000  0.37500000       0.003
   0.00000000  0.50000000  0.75000000       0.002
   0.10000000  0.48125000  0.93750000       0.003
   0.40000000  0.42500000  0.50000000       0.003
   0.70000000  0.36875000  0.06250000       0.003
   0.80000000  0.35000000  0.25000000       0.003
   0.00000000  0.31250000  0.62500000       0.002
   0.10000000  0.29375000  0.81250000       0.003
   0.40000000  0.23750000  0.37500000       0.003
   0.70000000  0.18125000  0.93750000       0.003
   0.00000000  0.12500000  0.50000000       0.002
   0.10000000  0.10625000  0.68750000       0.003
   0.40000000  0.05000000  0.25000000       0.003
   0.70000000  0.99375000  0.81250000       0.003
   0.00000000  0.93750000  0.37500000       0.002
   0.10000000  0.91875000  0.56250000       0.003
   0.40000000  0.86250000  0.12500000       0.003
   0.70000000  0.80625000  0.68750000       0.003
   0.00000000  0.75000000  0.25000000       0.002
   0.40000000  0.67500000  1.00000000       0.003
   0.70000000  0.61875000  0.56250000       0.003
   0.00000000  0.56250000  0.12500000       0.002
   0.70000000  0.43125000  0.43750000       0.003
   0.00000000  0.37500000  1.00000000       0.002
   0.00000000  0.18750000  0.87500000       0.002
   0.00000000  0.00000000  0.75000000       0.002
 
 position of ions in fractional coordinates (direct lattice) 
   0.00000000  0.00000000  0.00000000
   0.71428571  0.42857143  0.14285714
   0.42857143  0.85714286  0.28571429
   0.14285714  0.28571429  0.42857143
   0.85714286  0.71428571  0.57142857
   0.57142857  0.14285714  0.71428571
   0.28571429  0.57142857  0.85714286
 
 position of ions in cartesian coordinates  (Angst):
   0.00000000  0.00000000  0.00000000
   0.00000002  1.76500000  1.76499998
  -0.00000002  3.53000002 -0.00000000
  -1.76500000  1.76500002 -0.00000002
  -1.76500000  3.52999998  1.76500002
  -3.52999998  1.76499998  1.76500000
  -3.53000002  3.53000000  0.00000002
 


--------------------------------------------------------------------------------------------------------


 k-point  1 :   0.0500 0.9594 0.1562  plane waves:    1238
 k-point  2 :   0.1000 0.9500 0.2500  plane waves:    1243
 k-point  3 :   0.1500 0.9406 0.3438  plane waves:    1240
 k-point  4 :   0.2000 0.9313 0.4375  plane waves:    1234
 k-point  5 :   0.2500 0.9219 0.5312  plane waves:    1229
 k-point  6 :   0.3000 0.9125 0.6250  plane waves:    1234
 k-point  7 :   0.3500 0.9031 0.7188  plane waves:    1231
 k-point  8 :   0.4000 0.8938 0.8125  plane waves:    1231
 k-point  9 :   0.4500 0.8844 0.9062  plane waves:    1229
 k-point 10 :   0.5000 0.8750 1.0000  plane waves:    1225
 k-point 11 :   0.5500 0.8656 0.0938  plane waves:    1229
 k-point 12 :   0.6000 0.8562 0.1875  plane waves:    1237
 k-point 13 :   0.6500 0.8469 0.2812  plane waves:    1227
 k-point 14 :   0.7000 0.8375 0.3750  plane waves:    1240
 k-point 15 :   0.7500 0.8281 0.4688  plane waves:    1242
 k-point 16 :   0.8000 0.8187 0.5625  plane waves:    1233
 k-point 17 :   0.8500 0.8094 0.6562  plane waves:    1236
 k-point 18 :   0.9000 0.8000 0.7500  plane waves:    1239
 k-point 19 :   0.9500 0.7906 0.8438  plane waves:    1243
 k-point 20 :   0.0000 0.7812 0.9375  plane waves:    1243
 k-point 21 :   0.0500 0.7719 0.0312  plane waves:    1248
 k-point 22 :   0.1000 0.7625 0.1250  plane waves:    1242
 k-point 23 :   0.1500 0.7531 0.2188  plane waves:    1240
 k-point 24 :   0.2000 0.7438 0.3125  plane waves:    1238
 k-point 25 :   0.2500 0.7344 0.4062  plane waves:    1240
 k-point 26 :   0.3000 0.7250 0.5000  plane waves:    1227
 k-point 27 :   0.3500 0.7156 0.5938  plane waves:    1228
 k-point 28 :   0.4000 0.7063 0.6875  plane waves:    1230
 k-point 29 :   0.4500 0.6969 0.7812  plane waves:    1228
 k-point 30 :   0.5000 0.6875 0.8750  plane waves:    1228
 k-point 31 :   0.5500 0.6781 0.9688  plane waves:    1231
 k-point 32 :   0.6000 0.6687 0.0625  plane waves:    1228
 k-point 33 :   0.6500 0.6594 0.1562  plane waves:    1237
 k-point 34 :   0.7000 0.6500 0.2500  plane waves:    1241
 k-point 35 :   0.7500 0.6406 0.3438  plane waves:    1246
 k-point 36 :   0.8000 0.6312 0.4375  plane waves:    1249
 k-point 37 :   0.8500 0.6219 0.5312  plane waves:    1250
 k-point 38 :   0.9000 0.6125 0.6250  plane waves:    1246
 k-point 39 :   0.9500 0.6031 0.7188  plane waves:    1239
 k-point 40 :   0.0000 0.5938 0.8125  plane waves:    1241
 k-point 41 :   0.0500 0.5844 0.9062  plane waves:    1244
 k-point 42 :   0.1000 0.5750 1.0000  plane waves:    1246
 k-point 43 :   0.1500 0.5656 0.0938  plane waves:    1240
 k-point 44 :   0.2000 0.5563 0.1875  plane waves:    1241
 k-point 45 :   0.2500 0.5469 0.2812  plane waves:    1236
 k-point 46 :   0.3500 0.5281 0.4688  plane waves:    1246
 k-point 47 :   0.4000 0.5188 0.5625  plane waves:    1235
 k-point 48 :   0.4500 0.5094 0.6562  plane waves:    1230
 k-point 49 :   0.5000 0.5000 0.7500  plane waves:    1232
 k-point 50 :   0.5500 0.4906 0.8438  plane waves:    1228
 k-point 51 :   0.6000 0.4813 0.9375  plane waves:    1231
 k-point 52 :   0.6500 0.4719 0.0312  plane waves:    1240
 k-point 53 :   0.7000 0.4625 0.1250  plane waves:    1244
 k-point 54 :   0.7500 0.4531 0.2188  plane waves:    1238
 k-point 55 :   0.8000 0.4437 0.3125  plane waves:    1238
 k-point 56 :   0.8500 0.4344 0.4062  plane waves:    1240
 k-point 57 :   0.9000 0.4250 0.5000  plane waves:    1239
 k-point 58 :   0.9500 0.4156 0.5938  plane waves:    1245
 k-point 59 :   0.0000 0.4062 0.6875  plane waves:    1247
 k-point 60 :   0.0500 0.3969 0.7812  plane waves:    1239
 k-point 61 :   0.1000 0.3875 0.8750  plane waves:    1243
 k-point 62 :   0.1500 0.3781 0.9688  plane waves:    1242
 k-point 63 :   0.2000 0.3688 0.0625  plane waves:    1238
 k-point 64 :   0.2500 0.3594 0.1562  plane waves:    1231
 k-point 65 :   0.3500 0.3406 0.3438  plane waves:    1246
 k-point 66 :   0.4000 0.3312 0.4375  plane waves:    1236
 k-point 67 :   0.4500 0.3219 0.5312  plane waves:    1228
 k-point 68 :   0.5000 0.3125 0.6250  plane waves:    1231
 k-point 69 :   0.5500 0.3031 0.7188  plane waves:    1228
 k-point 70 :   0.6500 0.2844 0.9062  plane waves:    1233
 k-point 71 :   0.7000 0.2750 1.0000  plane waves:    1240
 k-point 72 :   0.7500 0.2656 0.0938  plane waves:    1244
 k-point 73 :   0.8000 0.2562 0.1875  plane waves:    1239
 k-point 74 :   0.8500 0.2469 0.2812  plane waves:    1229
 k-point 75 :   0.9000 0.2375 0.3750  plane waves:    1235
 k-point 76 :   0.9500 0.2281 0.4688  plane waves:    1232
 k-point 77 :   0.0000 0.2188 0.5625  plane waves:    1237
 k-point 78 :   0.0500 0.2094 0.6562  plane waves:    1235
 k-point 79 :   0.1000 0.2000 0.7500  plane waves:    1239
 k-point 80 :   0.1500 0.1906 0.8438  plane waves:    1244
 k-point 81 :   0.2000 0.1812 0.9375  plane waves:    1239
 k-point 82 :   0.2500 0.1719 0.0312  plane waves:    1236
 k-point 83 :   0.3500 0.1531 0.2188  plane waves:    1237
 k-point 84 :   0.4000 0.1437 0.3125  plane waves:    1232
 k-point 85 :   0.4500 0.1344 0.4062  plane waves:    1233
 k-point 86 :   0.5000 0.1250 0.5000  plane waves:    1238
 k-point 87 :   0.5500 0.1156 0.5938  plane waves:    1235
 k-point 88 :   0.6500 0.0969 0.7812  plane waves:    1230
 k-point 89 :   0.7000 0.0875 0.8750  plane waves:    1240
 k-point 90 :   0.7500 0.0781 0.9688  plane waves:    1246
 k-point 91 :   0.8000 0.0688 0.0625  plane waves:    1243
 k-point 92 :   0.8500 0.0594 0.1562  plane waves:    1243
 k-point 93 :   0.9500 0.0406 0.3438  plane waves:    1243
 k-point 94 :   0.0000 0.0312 0.4375  plane waves:    1258
 k-point 95 :   0.0500 0.0219 0.5312  plane waves:    1254
 k-point 96 :   0.1000 0.0125 0.6250  plane waves:    1241
 k-point 97 :   0.1500 0.0031 0.7188  plane waves:    1242
 k-point 98 :   0.2000 0.9938 0.8125  plane waves:    1249
 k-point 99 :   0.2500 0.9844 0.9062  plane waves:    1239
 k-point ** :   0.3500 0.9656 0.0938  plane waves:    1233
 k-point ** :   0.4000 0.9563 0.1875  plane waves:    1232
 k-point ** :   0.4500 0.9469 0.2812  plane waves:    1227
 k-point ** :   0.5000 0.9375 0.3750  plane waves:    1236
 k-point ** :   0.5500 0.9281 0.4688  plane waves:    1233
 k-point ** :   0.6500 0.9094 0.6562  plane waves:    1235
 k-point ** :   0.7000 0.9000 0.7500  plane waves:    1233
 k-point ** :   0.7500 0.8906 0.8438  plane waves:    1242
 k-point ** :   0.8000 0.8812 0.9375  plane waves:    1248
 k-point ** :   0.8500 0.8719 0.0312  plane waves:    1242
 k-point ** :   0.9500 0.8531 0.2188  plane waves:    1238
 k-point ** :   0.0000 0.8438 0.3125  plane waves:    1239
 k-point ** :   0.0500 0.8344 0.4062  plane waves:    1243
 k-point ** :   0.1000 0.8250 0.5000  plane waves:    1241
 k-point ** :   0.1500 0.8156 0.5938  plane waves:    1237
 k-point ** :   0.2000 0.8063 0.6875  plane waves:    1233
 k-point ** :   0.2500 0.7969 0.7812  plane waves:    1237
 k-point ** :   0.3500 0.7781 0.9688  plane waves:    1234
 k-point ** :   0.4000 0.7688 0.0625  plane waves:    1225
 k-point ** :   0.4500 0.7594 0.1562  plane waves:    1222
 k-point ** :   0.5000 0.7500 0.2500  plane waves:    1231
 k-point ** :   0.5500 0.7406 0.3438  plane waves:    1237
 k-point ** :   0.6500 0.7219 0.5312  plane waves:    1243
 k-point ** :   0.7000 0.7125 0.6250  plane waves:    1236
 k-point ** :   0.7500 0.7031 0.7188  plane waves:    1236
 k-point ** :   0.8000 0.6937 0.8125  plane waves:    1235
 k-point ** :   0.8500 0.6844 0.9062  plane waves:    1245
 k-point ** :   0.9500 0.6656 0.0938  plane waves:    1251
 k-point ** :   0.0000 0.6562 0.1875  plane waves:    1240
 k-point ** :   0.0500 0.6469 0.2812  plane waves:    1237
 k-point ** :   0.1000 0.6375 0.3750  plane waves:    1241
 k-point ** :   0.1500 0.6281 0.4688  plane waves:    1239
 k-point ** :   0.2500 0.6094 0.6562  plane waves:    1233
 k-point ** :   0.3500 0.5906 0.8438  plane waves:    1239
 k-point ** :   0.4000 0.5813 0.9375  plane waves:    1228
 k-point ** :   0.4500 0.5719 0.0312  plane waves:    1223
 k-point ** :   0.5000 0.5625 0.1250  plane waves:    1223
 k-point ** :   0.5500 0.5531 0.2188  plane waves:    1229
 k-point ** :   0.6500 0.5344 0.4062  plane waves:    1232
 k-point ** :   0.7000 0.5250 0.5000  plane waves:    1237
 k-point ** :   0.7500 0.5156 0.5938  plane waves:    1242
 k-point ** :   0.8000 0.5062 0.6875  plane waves:    1239
 k-point ** :   0.8500 0.4969 0.7812  plane waves:    1236
 k-point ** :   0.9500 0.4781 0.9688  plane waves:    1245
 k-point ** :   0.0000 0.4688 0.0625  plane waves:    1243
 k-point ** :   0.0500 0.4594 0.1562  plane waves:    1246
 k-point ** :   0.1000 0.4500 0.2500  plane waves:    1244
 k-point ** :   0.1500 0.4406 0.3438  plane waves:    1245
 k-point ** :   0.2500 0.4219 0.5312  plane waves:    1245
 k-point ** :   0.3500 0.4031 0.7188  plane waves:    1237
 k-point ** :   0.4000 0.3937 0.8125  plane waves:    1234
 k-point ** :   0.4500 0.3844 0.9062  plane waves:    1228
 k-point ** :   0.5500 0.3656 0.0938  plane waves:    1230
 k-point ** :   0.6500 0.3469 0.2812  plane waves:    1230
 k-point ** :   0.7000 0.3375 0.3750  plane waves:    1230
 k-point ** :   0.7500 0.3281 0.4688  plane waves:    1236
 k-point ** :   0.8000 0.3187 0.5625  plane waves:    1237
 k-point ** :   0.8500 0.3094 0.6562  plane waves:    1237
 k-point ** :   0.9500 0.2906 0.8438  plane waves:    1240
 k-point ** :   0.0000 0.2812 0.9375  plane waves:    1247
 k-point ** :   0.0500 0.2719 0.0312  plane waves:    1239
 k-point ** :   0.1000 0.2625 0.1250  plane waves:    1244
 k-point ** :   0.1500 0.2531 0.2188  plane waves:    1237
 k-point ** :   0.2500 0.2344 0.4062  plane waves:    1235
 k-point ** :   0.3500 0.2156 0.5938  plane waves:    1244
 k-point ** :   0.4000 0.2062 0.6875  plane waves:    1240
 k-point ** :   0.4500 0.1969 0.7812  plane waves:    1235
 k-point ** :   0.5500 0.1781 0.9688  plane waves:    1229
 k-point ** :   0.6500 0.1594 0.1562  plane waves:    1232
 k-point ** :   0.7000 0.1500 0.2500  plane waves:    1238
 k-point ** :   0.7500 0.1406 0.3438  plane waves:    1231
 k-point ** :   0.8500 0.1219 0.5312  plane waves:    1244
 k-point ** :   0.9500 0.1031 0.7188  plane waves:    1246
 k-point ** :   0.0000 0.0938 0.8125  plane waves:    1242
 k-point ** :   0.0500 0.0844 0.9062  plane waves:    1238
 k-point ** :   0.1000 0.0750 1.0000  plane waves:    1243
 k-point ** :   0.1500 0.0656 0.0938  plane waves:    1244
 k-point ** :   0.2500 0.0469 0.2812  plane waves:    1229
 k-point ** :   0.3500 0.0281 0.4688  plane waves:    1232
 k-point ** :   0.4000 0.0187 0.5625  plane waves:    1241
 k-point ** :   0.4500 0.0094 0.6562  plane waves:    1227
 k-point ** :   0.5500 0.9906 0.8438  plane waves:    1228
 k-point ** :   0.6500 0.9719 0.0312  plane waves:    1234
 k-point ** :   0.7000 0.9625 0.1250  plane waves:    1238
 k-point ** :   0.7500 0.9531 0.2187  plane waves:    1241
 k-point ** :   0.8500 0.9344 0.4062  plane waves:    1241
 k-point ** :   0.9500 0.9156 0.5938  plane waves:    1241
 k-point ** :   0.0000 0.9062 0.6875  plane waves:    1244
 k-point ** :   0.0500 0.8969 0.7812  plane waves:    1243
 k-point ** :   0.1000 0.8875 0.8750  plane waves:    1246
 k-point ** :   0.1500 0.8781 0.9687  plane waves:    1247
 k-point ** :   0.2500 0.8594 0.1562  plane waves:    1245
 k-point ** :   0.3500 0.8406 0.3438  plane waves:    1230
 k-point ** :   0.4000 0.8313 0.4375  plane waves:    1231
 k-point ** :   0.4500 0.8219 0.5312  plane waves:    1223
 k-point ** :   0.5500 0.8031 0.7188  plane waves:    1229
 k-point ** :   0.6500 0.7844 0.9062  plane waves:    1236
 k-point ** :   0.7000 0.7750 1.0000  plane waves:    1242
 k-point ** :   0.7500 0.7656 0.0937  plane waves:    1235
 k-point ** :   0.8500 0.7469 0.2812  plane waves:    1246
 k-point ** :   0.9500 0.7281 0.4687  plane waves:    1240
 k-point ** :   0.0000 0.7188 0.5625  plane waves:    1233
 k-point ** :   0.0500 0.7094 0.6562  plane waves:    1236
 k-point ** :   0.1500 0.6906 0.8437  plane waves:    1238
 k-point ** :   0.2500 0.6719 0.0312  plane waves:    1243
 k-point ** :   0.3500 0.6531 0.2187  plane waves:    1235
 k-point ** :   0.4000 0.6438 0.3125  plane waves:    1231
 k-point ** :   0.4500 0.6344 0.4062  plane waves:    1234
 k-point ** :   0.5500 0.6156 0.5938  plane waves:    1236
 k-point ** :   0.6500 0.5969 0.7812  plane waves:    1236
 k-point ** :   0.7000 0.5875 0.8750  plane waves:    1235
 k-point ** :   0.7500 0.5781 0.9688  plane waves:    1233
 k-point ** :   0.8500 0.5594 0.1562  plane waves:    1233
 k-point ** :   0.9500 0.5406 0.3438  plane waves:    1249
 k-point ** :   0.0000 0.5312 0.4375  plane waves:    1249
 k-point ** :   0.0500 0.5219 0.5312  plane waves:    1241
 k-point ** :   0.1500 0.5031 0.7187  plane waves:    1235
 k-point ** :   0.2500 0.4844 0.9062  plane waves:    1242
 k-point ** :   0.3500 0.4656 0.0937  plane waves:    1234
 k-point ** :   0.4500 0.4469 0.2812  plane waves:    1228
 k-point ** :   0.5500 0.4281 0.4687  plane waves:    1234
 k-point ** :   0.6500 0.4094 0.6562  plane waves:    1237
 k-point ** :   0.7000 0.4000 0.7500  plane waves:    1241
 k-point ** :   0.7500 0.3906 0.8438  plane waves:    1231
 k-point ** :   0.8500 0.3719 0.0312  plane waves:    1248
 k-point ** :   0.9500 0.3531 0.2188  plane waves:    1239
 k-point ** :   0.0000 0.3438 0.3125  plane waves:    1235
 k-point ** :   0.0500 0.3344 0.4062  plane waves:    1235
 k-point ** :   0.1500 0.3156 0.5938  plane waves:    1246
 k-point ** :   0.2500 0.2969 0.7812  plane waves:    1241
 k-point ** :   0.3500 0.2781 0.9687  plane waves:    1231
 k-point ** :   0.4500 0.2594 0.1562  plane waves:    1225
 k-point ** :   0.5500 0.2406 0.3437  plane waves:    1230
 k-point ** :   0.6500 0.2219 0.5312  plane waves:    1229
 k-point ** :   0.7500 0.2031 0.7187  plane waves:    1242
 k-point ** :   0.8500 0.1844 0.9062  plane waves:    1243
 k-point ** :   0.9500 0.1656 0.0937  plane waves:    1247
 k-point ** :   0.0000 0.1562 0.1875  plane waves:    1243
 k-point ** :   0.0500 0.1469 0.2812  plane waves:    1240
 k-point ** :   0.1500 0.1281 0.4687  plane waves:    1236
 k-point ** :   0.2500 0.1094 0.6562  plane waves:    1239
 k-point ** :   0.3500 0.0906 0.8437  plane waves:    1231
 k-point ** :   0.4500 0.0719 0.0312  plane waves:    1226
 k-point ** :   0.5500 0.0531 0.2187  plane waves:    1226
 k-point ** :   0.6500 0.0344 0.4062  plane waves:    1233
 k-point ** :   0.7500 0.0156 0.5937  plane waves:    1227
 k-point ** :   0.8500 0.9969 0.7812  plane waves:    1240
 k-point ** :   0.9500 0.9781 0.9687  plane waves:    1242
 k-point ** :   0.0000 0.9688 0.0625  plane waves:    1240
 k-point ** :   0.1000 0.9812 0.9375  plane waves:    1243
 k-point ** :   0.2000 0.9625 0.1250  plane waves:    1241
 k-point ** :   0.3000 0.9437 0.3125  plane waves:    1225
 k-point ** :   0.4000 0.9250 0.5000  plane waves:    1233
 k-point ** :   0.5000 0.9062 0.6875  plane waves:    1228
 k-point ** :   0.6000 0.8875 0.8750  plane waves:    1237
 k-point ** :   0.7000 0.8688 0.0625  plane waves:    1234
 k-point ** :   0.8000 0.8500 0.2500  plane waves:    1240
 k-point ** :   0.9000 0.8313 0.4375  plane waves:    1238
 k-point ** :   0.0000 0.8125 0.6250  plane waves:    1235
 k-point ** :   0.1000 0.7937 0.8125  plane waves:    1237
 k-point ** :   0.2000 0.7750 1.0000  plane waves:    1242
 k-point ** :   0.3000 0.7562 0.1875  plane waves:    1238
 k-point ** :   0.4000 0.7375 0.3750  plane waves:    1227
 k-point ** :   0.5000 0.7188 0.5625  plane waves:    1229
 k-point ** :   0.6000 0.7000 0.7500  plane waves:    1239
 k-point ** :   0.7000 0.6813 0.9375  plane waves:    1228
 k-point ** :   0.8000 0.6625 0.1250  plane waves:    1236
 k-point ** :   0.9000 0.6438 0.3125  plane waves:    1241
 k-point ** :   0.0000 0.6250 0.5000  plane waves:    1242
 k-point ** :   0.1000 0.6062 0.6875  plane waves:    1236
 k-point ** :   0.2000 0.5875 0.8750  plane waves:    1239
 k-point ** :   0.4000 0.5500 0.2500  plane waves:    1232
 k-point ** :   0.5000 0.5312 0.4375  plane waves:    1232
 k-point ** :   0.6000 0.5125 0.6250  plane waves:    1234
 k-point ** :   0.7000 0.4938 0.8125  plane waves:    1236
 k-point ** :   0.8000 0.4750 1.0000  plane waves:    1238
 k-point ** :   0.9000 0.4562 0.1875  plane waves:    1237
 k-point ** :   0.0000 0.4375 0.3750  plane waves:    1244
 k-point ** :   0.1000 0.4188 0.5625  plane waves:    1239
 k-point ** :   0.2000 0.4000 0.7500  plane waves:    1240
 k-point ** :   0.4000 0.3625 0.1250  plane waves:    1232
 k-point ** :   0.5000 0.3438 0.3125  plane waves:    1235
 k-point ** :   0.7000 0.3063 0.6875  plane waves:    1236
 k-point ** :   0.8000 0.2875 0.8750  plane waves:    1241
 k-point ** :   0.9000 0.2687 0.0625  plane waves:    1241
 k-point ** :   0.0000 0.2500 0.2500  plane waves:    1244
 k-point ** :   0.1000 0.2313 0.4375  plane waves:    1234
 k-point ** :   0.2000 0.2125 0.6250  plane waves:    1245
 k-point ** :   0.4000 0.1750 1.0000  plane waves:    1231
 k-point ** :   0.5000 0.1562 0.1875  plane waves:    1226
 k-point ** :   0.7000 0.1187 0.5625  plane waves:    1228
 k-point ** :   0.8000 0.1000 0.7500  plane waves:    1240
 k-point ** :   0.0000 0.0625 0.1250  plane waves:    1247
 k-point ** :   0.1000 0.0437 0.3125  plane waves:    1239
 k-point ** :   0.2000 0.0250 0.5000  plane waves:    1236
 k-point ** :   0.4000 0.9875 0.8750  plane waves:    1232
 k-point ** :   0.5000 0.9688 0.0625  plane waves:    1225
 k-point ** :   0.7000 0.9313 0.4375  plane waves:    1242
 k-point ** :   0.8000 0.9125 0.6250  plane waves:    1236
 k-point ** :   0.0000 0.8750 1.0000  plane waves:    1241
 k-point ** :   0.1000 0.8562 0.1875  plane waves:    1239
 k-point ** :   0.2000 0.8375 0.3750  plane waves:    1235
 k-point ** :   0.4000 0.8000 0.7500  plane waves:    1228
 k-point ** :   0.5000 0.7812 0.9375  plane waves:    1231
 k-point ** :   0.7000 0.7438 0.3125  plane waves:    1244
 k-point ** :   0.8000 0.7250 0.5000  plane waves:    1244
 k-point ** :   0.0000 0.6875 0.8750  plane waves:    1241
 k-point ** :   0.1000 0.6687 0.0625  plane waves:    1247
 k-point ** :   0.4000 0.6125 0.6250  plane waves:    1232
 k-point ** :   0.5000 0.5938 0.8125  plane waves:    1229
 k-point ** :   0.7000 0.5563 0.1875  plane waves:    1232
 k-point ** :   0.8000 0.5375 0.3750  plane waves:    1244
 k-point ** :   0.0000 0.5000 0.7500  plane waves:    1252
 k-point ** :   0.1000 0.4813 0.9375  plane waves:    1247
 k-point ** :   0.4000 0.4250 0.5000  plane waves:    1237
 k-point ** :   0.7000 0.3688 0.0625  plane waves:    1238
 k-point ** :   0.8000 0.3500 0.2500  plane waves:    1239
 k-point ** :   0.0000 0.3125 0.6250  plane waves:    1233
 k-point ** :   0.1000 0.2938 0.8125  plane waves:    1246
 k-point ** :   0.4000 0.2375 0.3750  plane waves:    1237
 k-point ** :   0.7000 0.1812 0.9375  plane waves:    1238
 k-point ** :   0.0000 0.1250 0.5000  plane waves:    1247
 k-point ** :   0.1000 0.1062 0.6875  plane waves:    1244
 k-point ** :   0.4000 0.0500 0.2500  plane waves:    1229
 k-point ** :   0.7000 0.9938 0.8125  plane waves:    1239
 k-point ** :   0.0000 0.9375 0.3750  plane waves:    1246
 k-point ** :   0.1000 0.9187 0.5625  plane waves:    1243
 k-point ** :   0.4000 0.8625 0.1250  plane waves:    1230
 k-point ** :   0.7000 0.8063 0.6875  plane waves:    1239
 k-point ** :   0.0000 0.7500 0.2500  plane waves:    1233
 k-point ** :   0.4000 0.6750 1.0000  plane waves:    1229
 k-point ** :   0.7000 0.6188 0.5625  plane waves:    1241
 k-point ** :   0.0000 0.5625 0.1250  plane waves:    1245
 k-point ** :   0.7000 0.4313 0.4375  plane waves:    1235
 k-point ** :   0.0000 0.3750 1.0000  plane waves:    1243
 k-point ** :   0.0000 0.1875 0.8750  plane waves:    1239
 k-point ** :   0.0000 0.0000 0.7500  plane waves:    1246

 maximum number of plane-waves:      1258
 maximum index in each direction: 
   IXMAX=    5   IYMAX=    6   IZMAX=    8
   IXMIN=   -6   IYMIN=   -7   IZMIN=   -9

 NGX is ok and might be reduce to  24
 NGY is ok and might be reduce to  28
 NGZ is ok and might be reduce to  36

 total amount of memory used by VASP on root node   684953. kBytes
========================================================================

   base      :      30000. kBytes
   nonl-proj :     121875. kBytes
   grid      :      12144. kBytes
   one-center:        108. kBytes
   wavefun   :     520826. kBytes
 
 For storing wavefunctions  465.63 MBYTES are necessary
 For predicting wavefunctions    4.80 MBYTES are necessary
 Broyden mixing: mesh for mixing (old mesh)
   NGX = 11   NGY = 13   NGZ = 17
  (NGX  = 48   NGY  = 56   NGZ  = 72)
  gives a total of   2431 points

 initial charge density was supplied:
 charge density of overlapping atoms calculated
 number of electron     118.0000000 magnetization 
 keeping initial charge density in first step


--------------------------------------------------------------------------------------------------------


 Maximum index for augmentation-charges         6739 (set IRDMAX)


--------------------------------------------------------------------------------------------------------


 First call to EWALD:  gamma=   0.417
 Maximum number of real-space cells 3x 3x 2
 Maximum number of reciprocal cells 2x 3x 3

    FEWALD:  cpu time    0.00: real time    0.00


----------------------------------------- Iteration    1(   1)  ---------------------------------------


    POTLOK:  cpu time    0.16: real time    0.16
    SETDIJ:  cpu time    0.02: real time    0.02
     EDDAV:  cpu time  204.06: real time  204.91
       DOS:  cpu time    0.06: real time    0.06
    --------------------------------------------
      LOOP:  cpu time  204.30: real time  205.15

 eigenvalue-minimisations  : 56048
 total energy-change (2. order) : 0.1491589E+04  (-0.6568214E+04)
 number of electron     118.0000000 magnetization 
 augmentation part      118.0000000 magnetization 

 Free energy of the ion-electron system (eV)
  ---------------------------------------------------
  alpha Z        PSCENC =      1140.43438682
  Ewald energy   TEWEN  =    -18604.50997186
  -1/2 Hartree   DENC   =     -8511.34665583
  -exchange  EXHF       =         0.00000000
  -V(xc)+E(xc)   XCENC  =       741.06091889
  PAW double counting   =     23793.15032724   -24829.49321606
  entropy T*S    EENTRO =        -0.00052019
  eigenvalues    EBANDS =      -458.61080278
  atomic energy  EATOM  =     28220.90498380
  ---------------------------------------------------
  free energy    TOTEN  =      1491.58945002 eV

  energy without entropy =     1491.58997021  energy(sigma->0) =     1491.58962342


--------------------------------------------------------------------------------------------------------




----------------------------------------- Iteration    1(   2)  ---------------------------------------


     EDDAV:  cpu time  180.10: real time  181.63
       DOS:  cpu time    0.06: real time    0.06
    --------------------------------------------
      LOOP:  cpu time  180.16: real time  181.69

[...]
     12     -62.3853      2.00000
     13     -62.3816      2.00000
     14     -62.3766      2.00000
     15     -62.3715      2.00000
     16     -62.3679      2.00000
     17     -62.3613      2.00000
     18     -62.3602      2.00000
     19     -55.4087      2.00000
     20     -55.4046      2.00000
     21     -55.3854      2.00000
     22      -0.6550      2.00000
     23       1.4644      2.00000
     24       2.2053      2.00000
     25       2.5973      2.00000
     26       2.8833      2.00000
     27       3.0394      2.00000
     28       3.2025      2.00000
     29       3.3012      2.00000
     30       3.3420      2.00000
     31       3.5325      2.00000
     32       3.6413      2.00000
     33       3.7865      2.00000
     34       4.0054      2.00000
     35       4.0817      2.00000
     36       4.3389      2.00000
     37       4.3737      2.00000
     38       4.6566      2.00000
     39       4.7306      2.00000
     40       4.9475      2.00000
     41       5.0819      2.00000
     42       5.1922      2.00000
     43       5.3119      2.00000
     44       5.4511      2.00000
     45       5.4680      2.00000
     46       5.5296      2.00000
     47       5.6347      2.00000
     48       5.6931      2.00000
     49       5.7898      2.00000
     50       5.7902      2.00000
     51       5.8904      2.00000
     52       5.9815      2.00000
     53       6.0032      2.00000
     54       6.0646      2.00000
     55       6.2994      2.00000
     56       6.8118      2.00000
     57       6.9815      2.00000
     58       7.0041      2.00000
     59       7.0346      2.00000
     60       8.3243     -0.00000
     61       8.4621     -0.00000
     62       9.7713     -0.00000
     63      10.6093      0.00000
     64      15.6537      0.00000
     65      16.5877      0.00000
     66      17.3348      0.00000
     67      18.1962      0.00000
     68      18.8730      0.00000
     69      19.3817      0.00000
     70      19.5588      0.00000

 k-point 335 :       0.0000    0.1875    0.8750
  band No.  band energies     occupation 
      1     -62.4632      2.00000
      2     -62.4628      2.00000
      3     -62.4532      2.00000
      4     -62.4416      2.00000
      5     -62.4308      2.00000
      6     -62.4282      2.00000
      7     -62.4245      2.00000
      8     -62.4132      2.00000
      9     -62.4100      2.00000
     10     -62.3936      2.00000
     11     -62.3895      2.00000
     12     -62.3884      2.00000
     13     -62.3821      2.00000
     14     -62.3816      2.00000
     15     -62.3679      2.00000
     16     -62.3602      2.00000
     17     -62.3578      2.00000
     18     -62.3550      2.00000
     19     -55.4084      2.00000
     20     -55.4046      2.00000
     21     -55.3853      2.00000
     22      -1.6779      2.00000
     23       1.9246      2.00000
     24       2.4787      2.00000
     25       2.5711      2.00000
     26       2.9958      2.00000
     27       3.3048      2.00000
     28       3.3301      2.00000
     29       3.3790      2.00000
     30       3.3995      2.00000
     31       3.4931      2.00000
     32       3.7145      2.00000
     33       3.9195      2.00000
     34       3.9600      2.00000
     35       4.0530      2.00000
     36       4.3965      2.00000
     37       4.5104      2.00000
     38       4.5370      2.00000
     39       4.7238      2.00000
     40       4.7473      2.00000
     41       5.0443      2.00000
     42       5.0538      2.00000
     43       5.1065      2.00000
     44       5.3647      2.00000
     45       5.4186      2.00000
     46       5.4281      2.00000
     47       5.4657      2.00000
     48       5.5420      2.00000
     49       5.6475      2.00000
     50       5.7683      2.00000
     51       5.8126      2.00000
     52       6.0063      2.00000
     53       6.0554      2.00000
     54       6.3600      2.00000
     55       6.6884      2.00000
     56       6.8905      2.00000
     57       6.9288      2.00000
     58       7.0551      2.00000
     59       7.3477      2.00001
     60       7.5418      2.05629
     61       9.7904     -0.00000
     62      11.7481      0.00000
     63      13.0965      0.00000
     64      15.7957      0.00000
     65      15.9941      0.00000
     66      16.3849      0.00000
     67      16.4441      0.00000
     68      17.4209      0.00000
     69      17.8013      0.00000
     70      18.2246      0.00000

 k-point 336 :       0.0000    0.0000    0.7500
  band No.  band energies     occupation 
      1     -62.4775      2.00000
      2     -62.4497      2.00000
      3     -62.4488      2.00000
      4     -62.4452      2.00000
      5     -62.4386      2.00000
      6     -62.4348      2.00000
      7     -62.4210      2.00000
      8     -62.4143      2.00000
      9     -62.4045      2.00000
     10     -62.3989      2.00000
     11     -62.3959      2.00000
     12     -62.3881      2.00000
     13     -62.3839      2.00000
     14     -62.3750      2.00000
     15     -62.3662      2.00000
     16     -62.3616      2.00000
     17     -62.3588      2.00000
     18     -62.3567      2.00000
     19     -55.4089      2.00000
     20     -55.4044      2.00000
     21     -55.3880      2.00000
     22      -1.7521      2.00000
     23       0.6413      2.00000
     24       2.6479      2.00000
     25       3.1197      2.00000
     26       3.1387      2.00000
     27       3.3106      2.00000
     28       3.4129      2.00000
     29       3.4833      2.00000
     30       3.6459      2.00000
     31       3.6621      2.00000
     32       3.8229      2.00000
     33       3.9243      2.00000
     34       3.9525      2.00000
     35       4.1188      2.00000
     36       4.1490      2.00000
     37       4.2729      2.00000
     38       4.4316      2.00000
     39       4.6383      2.00000
     40       4.6652      2.00000
     41       4.7721      2.00000
     42       4.9802      2.00000
     43       5.2824      2.00000
     44       5.2889      2.00000
     45       5.3705      2.00000
     46       5.3907      2.00000
     47       5.4259      2.00000
     48       5.4728      2.00000
     49       5.6652      2.00000
     50       5.8207      2.00000
     51       5.8802      2.00000
     52       6.0256      2.00000
     53       6.0851      2.00000
     54       6.2671      2.00000
     55       6.6908      2.00000
     56       6.7791      2.00000
     57       6.9050      2.00000
     58       7.0803      2.00000
     59       8.7502     -0.00000
     60       9.6160     -0.00000
     61      10.3823      0.00000
     62      11.7967      0.00000
     63      13.9255      0.00000
     64      14.4133      0.00000
     65      14.4297      0.00000
     66      16.2388      0.00000
     67      16.2665      0.00000
     68      16.6097      0.00000
     69      16.8573      0.00000
     70      17.4131      0.00000


--------------------------------------------------------------------------------------------------------


 soft charge-density along one line, spin component           1
         0         1         2         3         4         5         6         7         8         9
x    43.4216    0.0000   -0.0623   -0.2731   -0.0979    0.0471    0.0132    0.0166   -0.0078    0.0098
x     0.0119    0.0057    0.0015   -0.0066   -0.0511    0.0000    0.0001    0.0003    0.0000   -0.0000
x    -0.0000   -0.0000    0.0000   -0.0000    0.0000    0.0000
y    43.4216    0.0000   -0.2842    0.1368    0.0931   -0.1168   -0.0130    0.0570   -0.0011   -0.0050
y    -0.0076   -0.0095    0.0120    0.0058   -0.2866   -0.0000    0.0031   -0.0015   -0.0006    0.0007
y     0.0000   -0.0002    0.0000    0.0000   -0.0000   -0.0000    0.0000    0.0000    0.0000    0.0000
z    43.4216    0.0000    0.2180    0.2733   -0.0518    0.2271   -0.1209    0.0582   -0.0719   -0.0346
z    -0.0052   -0.0230   -0.0021    0.0026   -1.1714    0.0000   -0.0089   -0.0112    0.0029   -0.0128
z     0.0065   -0.0031    0.0036    0.0018    0.0005    0.0020   -0.0004    0.0006   -0.0060    0.0000
z    -0.0000   -0.0000    0.0000   -0.0000    0.0000   -0.0000    0.0000    0.0000
 total charge-density along one line
x   118.0000    0.0000    0.2220    0.9726    0.8753   -0.4215   -0.4688   -0.5879   -0.2729    0.3422
x     0.1456    0.0701    0.0046   -0.0203   -0.2584   -0.0000   -0.0003   -0.0015    0.0039   -0.0019
x    -0.0005   -0.0006    0.0011   -0.0013   -0.0002   -0.0001    0.0002   -0.0008   -0.0036   -0.0000
x    -0.0001   -0.0004   -0.0000   -0.0000   -0.0002   -0.0002    0.0000   -0.0000   -0.0001   -0.0001
x     0.0001   -0.0000    0.0002   -0.0000   -0.0000   -0.0000   -0.0001   -0.0000   -0.0000    0.0000
y   118.0000    0.0000    0.8853   -0.4264   -0.6377    0.7997    0.1981   -0.8680    0.1482    0.6496
y    -0.2480   -0.3109    0.1591    0.0766   -0.2204   -0.0000   -0.0082    0.0039    0.0070   -0.0088
y     0.0001   -0.0006    0.0010    0.0043   -0.0009   -0.0011   -0.0014   -0.0007   -0.0013    0.0000
y     0.0003   -0.0002   -0.0005    0.0006    0.0000   -0.0001   -0.0001   -0.0004    0.0001    0.0002
y     0.0002    0.0001    0.0003    0.0000   -0.0000    0.0000    0.0001   -0.0001    0.0000    0.0001
y     0.0000    0.0001   -0.0001   -0.0001   -0.0000   -0.0000   -0.0002    0.0000
z   118.0000    0.0000   -0.6084   -0.7629    0.2274   -0.9960    0.9092   -0.4379    0.8216    0.3956
z     0.1729    0.7576   -0.3766    0.4723    8.5594   -0.0000   -0.1505   -0.1887    0.0269   -0.1178
z     0.0292   -0.0141   -0.0052   -0.0025   -0.0025   -0.0110    0.0055   -0.0070    0.0570   -0.0000
z    -0.0024   -0.0030    0.0009   -0.0037    0.0011   -0.0006   -0.0009   -0.0004   -0.0004   -0.0017
z     0.0006   -0.0008    0.0089   -0.0000   -0.0005   -0.0006    0.0002   -0.0006    0.0001   -0.0000
z    -0.0003   -0.0001   -0.0001   -0.0004    0.0001   -0.0001    0.0022   -0.0000   -0.0002   -0.0002
z     0.0003   -0.0001   -0.0000    0.0000   -0.0001   -0.0000   -0.0001   -0.0001   -0.0000   -0.0000
z     0.0007    0.0000   -0.0001    0.0000
 
 pseudopotential strength for first ion, spin component:           1
-66.959   0.000   0.003   8.511  -0.000  -0.001   0.010   0.000
  0.000 -66.963   0.000  -0.000   8.512  -0.000  -0.000  -0.010
  0.003   0.000 -66.973  -0.001  -0.000   8.516  -0.012  -0.000
  8.511  -0.000  -0.001   5.851  -0.000   0.000  -0.003  -0.000
 -0.000   8.512  -0.000  -0.000   5.851  -0.000   0.000   0.003
 -0.001  -0.000   8.516   0.000  -0.000   5.850   0.003   0.000
  0.010  -0.000  -0.012  -0.003   0.000   0.003  -6.145   0.000
  0.000  -0.010  -0.000  -0.000   0.003   0.000   0.000  -6.141
  0.007   0.000  -0.006  -0.002  -0.000   0.002  -0.001  -0.000
 -0.000   0.011   0.000   0.000  -0.003  -0.000   0.000   0.003
  0.010  -0.000   0.010  -0.003   0.000  -0.003  -0.000  -0.000
  0.010  -0.000  -0.012  -0.003   0.000   0.003  -6.725   0.000
  0.000  -0.010  -0.000  -0.000   0.003   0.000   0.000  -6.721
  0.007   0.000  -0.006  -0.002  -0.000   0.002  -0.001  -0.000
 -0.000   0.011   0.000   0.000  -0.003  -0.000   0.000   0.003
  0.010  -0.000   0.010  -0.003   0.000  -0.003  -0.000  -0.000
  0.003  -0.000  -0.003  -0.001  -0.000   0.001  -0.000  -0.000
  0.006  -0.000  -0.006  -0.001  -0.000   0.001  -0.000  -0.000
 total augmentation occupancy for first ion, spin component:           1
  1.998   0.000  -0.000  -0.014   0.000  -0.000  -0.001   0.000  -0.001   0.000  -0.001   0.001   0.000   0.001   0.000   0.001
  0.000   1.998   0.000   0.000  -0.014   0.000   0.000   0.001   0.000  -0.001   0.000   0.000  -0.001   0.000   0.001   0.000
 -0.000   0.000   1.998  -0.000   0.000  -0.014   0.001   0.000   0.001   0.000  -0.001  -0.001   0.000  -0.001   0.000   0.001
 -0.014   0.000  -0.000   0.133   0.000   0.001  -0.005   0.000  -0.007   0.000  -0.002   0.003   0.000   0.003   0.000   0.002
  0.000  -0.014   0.000   0.000   0.131   0.000   0.000  -0.002   0.000  -0.010   0.000   0.000   0.000   0.000   0.006   0.000
 -0.000   0.000  -0.014   0.001   0.000   0.130   0.016   0.000   0.002   0.000  -0.006  -0.009   0.000  -0.002   0.000   0.003
 -0.001   0.000   0.001  -0.005   0.000   0.016   3.953   0.000   0.031   0.000  -0.001  -1.728   0.000  -0.023   0.000   0.000
  0.000   0.001   0.000   0.000  -0.002   0.000   0.000   3.883   0.000   0.065   0.000   0.000  -1.672   0.000  -0.049   0.000
 -0.001   0.000   0.001  -0.007   0.000   0.002   0.031   0.000   4.330   0.000   0.106  -0.023   0.000  -1.878   0.000  -0.081
  0.000  -0.001   0.000   0.000  -0.010   0.000   0.000   0.065   0.000   4.047   0.000   0.000  -0.049   0.000  -1.803   0.000
 -0.001   0.000  -0.001  -0.002   0.000  -0.006  -0.001   0.000   0.106   0.000   4.311   0.000   0.000  -0.081   0.000  -1.865
  0.001   0.000  -0.001   0.003   0.000  -0.009  -1.728   0.000  -0.023   0.000   0.000   1.421   0.000   0.018   0.000  -0.000
  0.000  -0.001   0.000   0.000   0.000   0.000   0.000  -1.672   0.000  -0.049   0.000   0.000   1.376   0.000   0.037   0.000
  0.001   0.000  -0.001   0.003   0.000  -0.002  -0.023   0.000  -1.878   0.000  -0.081   0.018   0.000   1.393   0.000   0.061
  0.000   0.001   0.000   0.000   0.006   0.000   0.000  -0.049   0.000  -1.803   0.000   0.000   0.037   0.000   1.481   0.000
  0.001   0.000   0.001   0.002   0.000   0.003   0.000   0.000  -0.081   0.000  -1.865  -0.000   0.000   0.061   0.000   1.384
 -0.009   0.000   0.008  -0.002   0.000   0.001   0.004   0.000   0.008   0.000  -0.011   0.002   0.000  -0.004   0.000  -0.002
  0.004   0.000  -0.004  -0.000   0.000   0.000  -0.007   0.000  -0.001   0.000   0.012   0.003   0.000   0.000   0.000  -0.004


------------------------ aborting loop because EDIFF is reached ----------------------------------------


    CHARGE:  cpu time   21.57: real time   21.60
    FORLOC:  cpu time    0.01: real time    0.01
    FORNL :  cpu time   33.98: real time   34.02
    STRESS:  cpu time   28.79: real time   28.82
    FORCOR:  cpu time    0.17: real time    0.17
    FORHAR:  cpu time    0.05: real time    0.05
    MIXING:  cpu time    0.01: real time    0.01

  FORCE on cell =-STRESS in cart. coord.  units (eV):
  Direction    XX          YY          ZZ          XY          YZ          ZX
  --------------------------------------------------------------------------------------
  Alpha Z  1140.43439  1140.43439  1140.43439
  Ewald   -6202.61137 -6201.52425 -6200.40724     0.74317    -0.00000     0.00000
  Hartree  2740.22981  2741.82127  2742.32173     0.91724     0.00009    -0.00025
  E(xc)    -921.84772  -921.84575  -921.84744     0.00004     0.00012     0.00009
  Local    1067.17649  1063.85341  1062.87652    -1.89438    -0.00442    -0.00141
  n-local  -621.69563  -621.63359  -621.71951     0.00286     0.00829    -0.01222
  augment  1306.77050  1307.10357  1306.80421     0.13918     0.00108    -0.00175
  Kinetic  1490.86826  1491.23395  1490.92240     0.13550     0.14180    -0.05053
  Fock        0.00000     0.00000     0.00000     0.00000     0.00000     0.00000
  -------------------------------------------------------------------------------------
  Total      -0.67527    -0.55701    -0.61494     0.04361     0.00000     0.00000
  in kB     -14.05477   -11.59348   -12.79922     0.90773     0.00000     0.00000
  external pressure =      -12.82 kB  Pullay stress =        0.00 kB


 VOLUME and BASIS-vectors are now :
 -----------------------------------------------------------------------------
  energy-cutoff  :      368.65
  volume of cell :       76.98
      direct lattice vectors                 reciprocal lattice vectors
     0.000000000  0.000000000  3.530000000     0.040469446  0.121408337  0.283286119
     1.765000000  3.530000000 -1.765000000     0.080938891  0.242816673  0.000000000
    -5.295000000  1.765000000  0.000000000    -0.161877782  0.080938891  0.000000000

  length of vectors
     3.530000000  4.323349396  5.581420070     0.310851710  0.255951247  0.180984863


 FORCES acting on ions
    electron-ion (+dipol)            ewald-force                    non-local-force                 convergence-correction
 -----------------------------------------------------------------------------------------------
   -.221E+02 0.175E+02 0.541E-04   0.227E+02 -.182E+02 -.295E-06   -.599E+00 0.699E+00 0.000E+00   0.269E-02 -.320E-02 -.524E-08
   -.359E+02 0.746E+01 -.248E-03   0.381E+02 -.753E+01 0.171E-04   -.201E+01 0.638E-01 0.139E-16   0.583E-02 -.107E-03 0.269E-06
   -.152E+02 0.153E+02 0.140E-03   0.160E+02 -.163E+02 -.507E-05   -.695E+00 0.940E+00 0.000E+00   0.208E-02 -.313E-02 0.894E-08
   0.152E+02 -.153E+02 0.346E-03   -.160E+02 0.163E+02 0.164E-04   0.695E+00 -.940E+00 0.000E+00   -.208E-02 0.313E-02 -.181E-06
   0.359E+02 -.746E+01 -.308E-03   -.381E+02 0.753E+01 -.162E-04   0.201E+01 -.638E-01 -.139E-16   -.583E-02 0.109E-03 -.543E-07
   0.221E+02 -.175E+02 -.113E-03   -.227E+02 0.182E+02 0.489E-05   0.599E+00 -.699E+00 0.000E+00   -.269E-02 0.320E-02 0.127E-07
   -.157E-04 -.424E-03 -.145E-04   0.174E-05 0.127E-04 -.168E-04   0.217E-18 0.542E-19 0.000E+00   0.105E-05 -.608E-06 -.259E-07
 -----------------------------------------------------------------------------------------------
   -.112E-02 -.105E-02 -.144E-03   0.283E-12 -.264E-13 0.414E-14   -.444E-15 -.222E-15 0.000E+00   -.440E-08 0.956E-07 0.243E-07
 
 
 POSITION                                       TOTAL-FORCE (eV/Angst)
 -----------------------------------------------------------------------------------
      0.00000      0.00000      0.00000         0.059318     -0.070441      0.000000
      0.00000      1.76500      1.76500         0.157399     -0.008231      0.000000
     -0.00000      3.53000     -0.00000         0.068170     -0.089307      0.000000
     -1.76500      1.76500     -0.00000        -0.068170      0.089307     -0.000000
     -1.76500      3.53000      1.76500        -0.157399      0.008231      0.000000
     -3.53000      1.76500      1.76500        -0.059318      0.070441     -0.000000
     -3.53000      3.53000      0.00000         0.000000      0.000000      0.000000
 -----------------------------------------------------------------------------------
    total drift:                               -0.001124     -0.001047     -0.000144


--------------------------------------------------------------------------------------------------------



  FREE ENERGIE OF THE ION-ELECTRON SYSTEM (eV)
  ---------------------------------------------------
  free  energy   TOTEN  =       -27.62195625 eV

  energy  without entropy=      -27.62220232  energy(sigma->0) =      -27.62203827
 


--------------------------------------------------------------------------------------------------------


    POTLOK:  cpu time    0.18: real time    0.18


--------------------------------------------------------------------------------------------------------


     LOOP+:  cpu time 3933.32: real time 3944.26
    4ORBIT:  cpu time    0.00: real time    0.00

 total amount of memory used by VASP on root node   684953. kBytes
========================================================================

   base      :      30000. kBytes
   nonl-proj :     121875. kBytes
   grid      :      12144. kBytes
   one-center:        108. kBytes
   wavefun   :     520826. kBytes
 
  
  
 General timing and accounting informations for this job:
 ========================================================
  
                  Total CPU time used (sec):     3940.474
                            User time (sec):     3938.827
                          System time (sec):        1.647
                         Elapsed time (sec):     3952.608
  
                   Maximum memory used (kb):     1694080.
                   Average memory used (kb):           0.
  
                          Minor page faults:       460731
                          Major page faults:            0
                 Voluntary context switches:          356
