
                                 *****************
                                 * O   R   C   A *
                                 *****************

           --- An Ab Initio, DFT and Semiempirical electronic structure package ---

                  #######################################################
                  #                        -***-                        #
                  #          Department of theory and spectroscopy      #
                  #               Directorship: Frank Neese             #
                  #        Max Planck Institute fuer Kohlenforschung    #
                  #                Kaiser Wilhelm Platz 1               #
                  #                 D-45470 Muelheim/Ruhr               #
                  #                      Germany                        #
                  #                                                     #
                  #                  All rights reserved                #
                  #                        -***-                        #
                  #######################################################


                         Program Version 4.2.1 -  RELEASE  -


 With contributions from (in alphabetic order):
   Daniel Aravena         : Magnetic Suceptibility
   Michael Atanasov       : Ab Initio Ligand Field Theory (pilot matlab implementation)
   Alexander A. Auer      : GIAO ZORA, VPT2
   Ute Becker             : Parallelization
   Giovanni Bistoni       : ED, misc. LED, open-shell LED, HFLD
   Martin Brehm           : Molecular dynamics
   Dmytro Bykov           : SCF Hessian
   Vijay G. Chilkuri      : MRCI spin determinant printing, contributions to CSF-ICE
   Dipayan Datta          : RHF DLPNO-CCSD density
   Achintya Kumar Dutta   : EOM-CC, STEOM-CC
   Dmitry Ganyushin       : Spin-Orbit,Spin-Spin,Magnetic field MRCI
   Miquel Garcia          : C-PCM Hessian, Gaussian charge scheme
   Yang Guo               : DLPNO-NEVPT2, CIM, IAO-localization
   Andreas Hansen         : Spin unrestricted coupled pair/coupled cluster methods
   Benjamin Helmich-Paris : CASSCF linear response (MC-RPA)
   Lee Huntington         : MR-EOM, pCC
   Robert Izsak           : Overlap fitted RIJCOSX, COSX-SCS-MP3, EOM
   Christian Kollmar      : KDIIS, OOCD, Brueckner-CCSD(T), CCSD density
   Simone Kossmann        : Meta GGA functionals, TD-DFT gradient, OOMP2, MP2 Hessian
   Martin Krupicka        : AUTO-CI
   Lucas Lang             : DCDCAS
   Dagmar Lenk            : GEPOL surface, SMD
   Dimitrios Liakos       : Extrapolation schemes; Compound Job, initial MDCI parallelization
   Dimitrios Manganas     : Further ROCIS development; embedding schemes
   Dimitrios Pantazis     : SARC Basis sets
   Taras Petrenko         : DFT Hessian,TD-DFT gradient, ASA, ECA, R-Raman, ABS, FL, XAS/XES, NRVS
   Peter Pinski           : DLPNO-MP2, DLPNO-MP2 Gradient
   Christoph Reimann      : Effective Core Potentials
   Marius Retegan         : Local ZFS, SOC
   Christoph Riplinger    : Optimizer, TS searches, QM/MM, DLPNO-CCSD(T), (RO)-DLPNO pert. Triples
   Tobias Risthaus        : Range-separated hybrids, TD-DFT gradient, RPA, STAB
   Michael Roemelt        : Original ROCIS implementation
   Masaaki Saitow         : Open-shell DLPNO-CCSD energy and density
   Barbara Sandhoefer     : DKH picture change effects
   Avijit Sen             : IP-ROCIS
   Kantharuban Sivalingam : CASSCF convergence, NEVPT2, FIC-MRCI
   Bernardo de Souza      : ESD, SOC TD-DFT
   Georgi Stoychev        : AutoAux, RI-MP2 NMR
   Willem Van den Heuvel  : Paramagnetic NMR
   Boris Wezisla          : Elementary symmetry handling
   Frank Wennmohs         : Technical directorship


 We gratefully acknowledge several colleagues who have allowed us to
 interface, adapt or use parts of their codes:
   Stefan Grimme, W. Hujo, H. Kruse,             : VdW corrections, initial TS optimization,
                  C. Bannwarth                     DFT functionals, gCP, sTDA/sTD-DF
   Ed Valeev, F. Pavosevic, A. Kumar             : LibInt (2-el integral package), F12 methods
   Garnet Chan, S. Sharma, J. Yang, R. Olivares  : DMRG
   Ulf Ekstrom                                   : XCFun DFT Library
   Mihaly Kallay                                 : mrcc  (arbitrary order and MRCC methods)
   Andreas Klamt, Michael Diedenhofen            : otool_cosmo (COSMO solvation model)
   Jiri Pittner, Ondrej Demel                    : Mk-CCSD
   Frank Weinhold                                : gennbo (NPA and NBO analysis)
   Christopher J. Cramer and Donald G. Truhlar   : smd solvation model
   Lars Goerigk                                  : TD-DFT with DH, B97 family of functionals
   V. Asgeirsson, H. Jonsson                     : NEB implementation
   FAccTs GmbH                                   : IRC, NEB, NEB-TS, Multilevel, MM, QM/MM, CI optimization
   S Lehtola, MJT Oliveira, MAL Marques          : LibXC Library


 Your calculation uses the libint2 library for the computation of 2-el integrals
 For citations please refer to: http://libint.valeyev.net

 Your ORCA version has been built with support for libXC version: 4.2.3
 For citations please refer to: https://tddft.org/programs/libxc/

 This ORCA versions uses:
   CBLAS   interface :  Fast vector & matrix operations
   LAPACKE interface :  Fast linear algebra routines
   SCALAPACK package :  Parallel linear algebra routines


----- Orbital basis set information -----
Your calculation utilizes the basis: SARC-DKH-TZVP 
   La-Lu:  D. A. Pantazis and F. Neese, J. Chem. Theory Comput. 5, 2229 (2009).
   Hf-Hg:  D. A. Pantazis, X. Y. Chen, C. R. Landis and F. Neese, J. Chem. Theory Comput. 4, 908 (2008).
   Tl-Rn:  D. A. Pantazis and F. Neese, Theor. Chem. Acc. 131, 1292 (2012).
   Ac-Lr:  D. A. Pantazis and F. Neese, J. Chem. Theory Comput. 7, 677 (2011).

----- AuxJ basis set information -----
Your calculation utilizes the AutoAux generation procedure.
  G. L. Stoychev, A. A. Auer, F. Neese, J. Chem. Theory Comput. 13, 554 (2017)

----- AuxC basis set information -----
Your calculation utilizes the AutoAux generation procedure.
  G. L. Stoychev, A. A. Auer, F. Neese, J. Chem. Theory Comput. 13, 554 (2017)

----- AuxJK basis set information -----
Your calculation utilizes the AutoAux generation procedure.
  G. L. Stoychev, A. A. Auer, F. Neese, J. Chem. Theory Comput. 13, 554 (2017)

================================================================================
                                        WARNINGS
                       Please study these warnings very carefully!
================================================================================


WARNING: PNO calculations with unrestricted orbitals require UNOs
  ===> : Switching on UNOs

WARNING: Unrestricted DLPNO-CCSD(T0/T) with FullLMP2-Guess requested.
         This is not yet implemented.
         When comparing energies between closed and open shell calculations:
  ===> : Be aware to set UseFullLMP2Guess to false for the corresponding closed shell calculations.
         Note that UseFullLMP2Guess is done by default only for TightPNO closed shell calculations.


WARNING: MDCI localization with Augmented Hessian Foster-Boys
  ===> : Switching off randomization!

WARNING: Post HF methods need fully converged wavefunctions
  ===> : Setting SCFConvForced true
         You can overwrite this default with %scf ConvForced false 


INFO   : the flag for use of LIBINT has been found!

================================================================================
                                       INPUT FILE
================================================================================
NAME = A-free-THF.inp
|  1> ! UHF RIJK DLPNO-CCSD(T) DKH
|  2> ! SARC-DKH-TZVP AutoAux
|  3> ! Grid6 NoFinalGrid
|  4> ! MORead NoIter
|  5> 
|  6> %MOInp   "/home/akselim/richard_layfield/COTUCb/orca/HF02/A-free-THF.gbw"
|  7> %MaxCore 14000
|  8> 
|  9> %Pal
| 10>  NProcs 20
| 11> End
| 12> 
| 13> %Basis
| 14>  NewGTO    U  "SARC-DKH-TZVPP" End
| 15>  NewGTO    H  "DKH-def2-SVP" End
| 16>  NewGTO    C  "DKH-def2-TZVP" End
| 17>  NewGTO    Si "DKH-def2-TZVP" End
| 18>  NewGTO    O  "DKH-def2-TZVP" End
| 19>  NewAuxGTO U  "AutoAux" End
| 20>  NewAuxGTO H  "AutoAux" End
| 21>  NewAuxGTO C  "AutoAux" End
| 22>  NewAuxGTO Si "AutoAux" End
| 23>  NewAuxGTO O  "AutoAux" End
| 24> End
| 25> 
| 26> %Rel
| 27>  Method DKH
| 28>  PictureChange 2
| 29> End
| 30> 
| 31> %Method
| 32>  SpecialGridAtoms  92
| 33>  SpecialGridIntAcc 11
| 34> End
| 35> 
| 36> *xyz 0 1
| 37>  C      -1.101964    0.112861    0.737483
| 38>  O      -0.849867   -0.964612   -0.168281
| 39>  C       0.549561   -0.884332   -0.451875
| 40>  C       0.859741    0.616948   -0.598777
| 41>  C      -0.272354    1.299656    0.213786
| 42>  H      -2.184704    0.291874    0.749690
| 43>  H      -0.777647   -0.170068    1.758971
| 44>  H       1.128957   -1.322868    0.385122
| 45>  H       0.740359   -1.473479   -1.357967
| 46>  H       1.859520    0.862813   -0.217166
| 47>  H       0.819659    0.920274   -1.652834
| 48>  H       0.112535    1.918462    1.035106
| 49>  H      -0.881981    1.943406   -0.433257
| 50> *
| 51> 
| 52>                          ****END OF INPUT****
================================================================================

                       ****************************
                       * Single Point Calculation *
                       ****************************

---------------------------------
CARTESIAN COORDINATES (ANGSTROEM)
---------------------------------
  C     -1.101964    0.112861    0.737483
  O     -0.849867   -0.964612   -0.168281
  C      0.549561   -0.884332   -0.451875
  C      0.859741    0.616948   -0.598777
  C     -0.272354    1.299656    0.213786
  H     -2.184704    0.291874    0.749690
  H     -0.777647   -0.170068    1.758971
  H      1.128957   -1.322868    0.385122
  H      0.740359   -1.473479   -1.357967
  H      1.859520    0.862813   -0.217166
  H      0.819659    0.920274   -1.652834
  H      0.112535    1.918462    1.035106
  H     -0.881981    1.943406   -0.433257

----------------------------
CARTESIAN COORDINATES (A.U.)
----------------------------
  NO LB      ZA    FRAG     MASS         X           Y           Z
   0 C     6.0000    0    12.011   -2.082410    0.213276    1.393641
   1 O     8.0000    0    15.999   -1.606016   -1.822853   -0.318005
   2 C     6.0000    0    12.011    1.038520   -1.671145   -0.853920
   3 C     6.0000    0    12.011    1.624675    1.165863   -1.131525
   4 C     6.0000    0    12.011   -0.514674    2.455994    0.403997
   5 H     1.0000    0     1.008   -4.128492    0.551562    1.416709
   6 H     1.0000    0     1.008   -1.469540   -0.321382    3.323973
   7 H     1.0000    0     1.008    2.133420   -2.499858    0.727775
   8 H     1.0000    0     1.008    1.399076   -2.784472   -2.566186
   9 H     1.0000    0     1.008    3.513984    1.630480   -0.410384
  10 H     1.0000    0     1.008    1.548931    1.739066   -3.123404
  11 H     1.0000    0     1.008    0.212660    3.625368    1.956067
  12 H     1.0000    0     1.008   -1.666703    3.672505   -0.818737

--------------------------------
INTERNAL COORDINATES (ANGSTROEM)
--------------------------------
 C      0   0   0     0.000000000000     0.00000000     0.00000000
 O      1   0   0     1.430003282106     0.00000000     0.00000000
 C      2   1   0     1.430129071944   104.82179015     0.00000000
 C      3   2   1     1.540010866327   105.70766301   319.51918602
 C      1   2   3     1.539803127654   105.68405337    40.56255926
 H      1   2   3     1.097506525091   107.68976171   162.98147454
 H      1   2   3     1.108453007427   109.86489258   281.17187199
 H      3   2   1     1.108412164369   109.84963984    78.90999276
 H      3   2   1     1.097497506547   107.67986592   197.09657518
 H      4   3   2     1.098013935425   111.62488450   145.20227325
 H      4   3   2     1.097565209110   110.71168627   265.25601131
 H      5   1   2     1.098010450933   111.64320790   214.56548260
 H      5   1   2     1.097599100527   110.68905689    94.51701141

---------------------------
INTERNAL COORDINATES (A.U.)
---------------------------
 C      0   0   0     0.000000000000     0.00000000     0.00000000
 O      1   0   0     2.702314573789     0.00000000     0.00000000
 C      2   1   0     2.702552282134   104.82179015     0.00000000
 C      3   2   1     2.910198780620   105.70766301   319.51918602
 C      1   2   3     2.909806211422   105.68405337    40.56255926
 H      1   2   3     2.073986762614   107.68976171   162.98147454
 H      1   2   3     2.094672616358   109.86489258   281.17187199
 H      3   2   1     2.094595434164   109.84963984    78.90999276
 H      3   2   1     2.073969720035   107.67986592   197.09657518
 H      4   3   2     2.074945629182   111.62488450   145.20227325
 H      4   3   2     2.074097659338   110.71168627   265.25601131
 H      5   1   2     2.074939044446   111.64320790   214.56548260
 H      5   1   2     2.074161704835   110.68905689    94.51701141

---------------------
BASIS SET INFORMATION
---------------------
There are 3 groups of distinct atoms

 Group   1 Type C   : 11s6p2d1f contracted to 6s3p2d1f pattern {611111/411/11/1}
 Group   2 Type O   : 11s6p2d1f contracted to 6s3p2d1f pattern {611111/411/11/1}
 Group   3 Type H   : 4s1p contracted to 2s1p pattern {31/1}

Atom   0C    basis set group =>   1
Atom   1O    basis set group =>   2
Atom   2C    basis set group =>   1
Atom   3C    basis set group =>   1
Atom   4C    basis set group =>   1
Atom   5H    basis set group =>   3
Atom   6H    basis set group =>   3
Atom   7H    basis set group =>   3
Atom   8H    basis set group =>   3
Atom   9H    basis set group =>   3
Atom  10H    basis set group =>   3
Atom  11H    basis set group =>   3
Atom  12H    basis set group =>   3
---------------------------------
AUXILIARY/J BASIS SET INFORMATION
---------------------------------
There are 3 groups of distinct atoms

 Group   1 Type C   : 16s13p12d7f3g contracted to 16s13p12d7f3g pattern {1111111111111111/1111111111111/111111111111/1111111/111}
 Group   2 Type O   : 16s13p12d7f3g contracted to 16s13p12d7f3g pattern {1111111111111111/1111111111111/111111111111/1111111/111}
 Group   3 Type H   : 9s2p1d contracted to 9s2p1d pattern {111111111/11/1}

Atom   0C    basis set group =>   1
Atom   1O    basis set group =>   2
Atom   2C    basis set group =>   1
Atom   3C    basis set group =>   1
Atom   4C    basis set group =>   1
Atom   5H    basis set group =>   3
Atom   6H    basis set group =>   3
Atom   7H    basis set group =>   3
Atom   8H    basis set group =>   3
Atom   9H    basis set group =>   3
Atom  10H    basis set group =>   3
Atom  11H    basis set group =>   3
Atom  12H    basis set group =>   3
---------------------------------
AUXILIARY/C BASIS SET INFORMATION
---------------------------------
There are 3 groups of distinct atoms

 Group   1 Type C   : 16s13p12d7f3g contracted to 16s13p12d7f3g pattern {1111111111111111/1111111111111/111111111111/1111111/111}
 Group   2 Type O   : 16s13p12d7f3g contracted to 16s13p12d7f3g pattern {1111111111111111/1111111111111/111111111111/1111111/111}
 Group   3 Type H   : 9s2p1d contracted to 9s2p1d pattern {111111111/11/1}

Atom   0C    basis set group =>   1
Atom   1O    basis set group =>   2
Atom   2C    basis set group =>   1
Atom   3C    basis set group =>   1
Atom   4C    basis set group =>   1
Atom   5H    basis set group =>   3
Atom   6H    basis set group =>   3
Atom   7H    basis set group =>   3
Atom   8H    basis set group =>   3
Atom   9H    basis set group =>   3
Atom  10H    basis set group =>   3
Atom  11H    basis set group =>   3
Atom  12H    basis set group =>   3
----------------------------------
AUXILIARY/JK BASIS SET INFORMATION
----------------------------------
There are 3 groups of distinct atoms

 Group   1 Type C   : 16s13p12d7f3g contracted to 16s13p12d7f3g pattern {1111111111111111/1111111111111/111111111111/1111111/111}
 Group   2 Type O   : 16s13p12d7f3g contracted to 16s13p12d7f3g pattern {1111111111111111/1111111111111/111111111111/1111111/111}
 Group   3 Type H   : 9s2p1d contracted to 9s2p1d pattern {111111111/11/1}

Atom   0C    basis set group =>   1
Atom   1O    basis set group =>   2
Atom   2C    basis set group =>   1
Atom   3C    basis set group =>   1
Atom   4C    basis set group =>   1
Atom   5H    basis set group =>   3
Atom   6H    basis set group =>   3
Atom   7H    basis set group =>   3
Atom   8H    basis set group =>   3
Atom   9H    basis set group =>   3
Atom  10H    basis set group =>   3
Atom  11H    basis set group =>   3
Atom  12H    basis set group =>   3


           ************************************************************
           *        Program running with 20 parallel MPI-processes    *
           *              working on a common directory               *
           ************************************************************
------------------------------------------------------------------------------
                           ORCA GTO INTEGRAL CALCULATION
                           -- RI-GTO INTEGRALS CHOSEN --
------------------------------------------------------------------------------

                         BASIS SET STATISTICS AND STARTUP INFO

Gaussian basis set:
 # of primitive gaussian shells          ...  140
 # of primitive gaussian functions       ...  286
 # of contracted shells                  ...   84
 # of contracted basis functions         ...  200
 Highest angular momentum                ...    3
 Maximum contraction depth               ...    6
Auxiliary gaussian basis set:
 # of primitive gaussian shells          ...  351
 # of primitive gaussian functions       ... 1115
 # of contracted shells                  ...  351
 # of contracted aux-basis functions     ... 1115
 Highest angular momentum                ...    4
 Maximum contraction depth               ...    1
Ratio of auxiliary to basis functions    ...  5.58
Integral package used                  ... LIBINT
 One Electron integrals                  ... done
 Ordering auxiliary basis shells         ... done
 Integral threshhold             Thresh  ...  1.000e-10
 Primitive cut-off               TCut    ...  1.000e-11
 Pre-screening matrix                    ... done
 Shell pair data                         ... 
 Ordering of the shell pairs             ... done (   0.000 sec) 3501 of 3570 pairs
 Determination of significant pairs      ... done (   0.000 sec)
 Creation of shell pair data             ... done (   0.000 sec)
 Storage of shell pair data              ... done (   0.001 sec)
 Shell pair data done in (   0.002 sec)
 Computing two index integrals           ... done
 Cholesky decomposition of the V-matrix  ... done


Timings:
 Total evaluation time                   ...   0.234 sec (  0.004 min)
 One electron matrix time                ...   0.017 sec (  0.000 min) =  7.5%
 Schwartz matrix evaluation time         ...   0.120 sec (  0.002 min) = 51.3%
 Two index repulsion integral time       ...   0.023 sec (  0.000 min) =  9.8%
 Cholesky decomposition of V             ...   0.055 sec (  0.001 min) = 23.4%
 Three index repulsion integral time     ...   0.000 sec (  0.000 min) =  0.0%



           ************************************************************
           *        Program running with 20 parallel MPI-processes    *
           *              working on a common directory               *
           ************************************************************
------------------------------------------------------------------------------
                          ORCA RELATIVISTIC HAMILTONIAN
------------------------------------------------------------------------------

Relativistic Method            ... DKH
Order of DKH treatment         ...   2
Treatment of potential         ... V(e,N)
Eps parameter for DKH          ...   0.00000000010000
Nucleus model                  ... Point Nucleus
Speed of light used            ... 137.03598950000000


            ************************************************
            *        DOUGLAS-KROLL-HESS HAMILTONIAN        *
            *   Programmed by FN according to literature   *
            *        procedures. Special thanks to         *
            *       B.A. Hess, M. Reiher and A. Wolf       *
            *     University Erlangen-Nuernberg/Bonn       *
            ************************************************

Uncontracting the basis (first version)        ... done
Number of contracted basis functions           ...  200
Number of uncontracted basis functions         ...  286
Initializing the DKH file                      ... done
Calculating the relativistic integrals         ... done
Storing DKH matrices                           ... done
Code used for DKH trafo                        ... ORCA
Computing the DKH transformation               ... done
Storing the transformation variables           ... done
Transforming V and pVp to p**2 space           ... done
First transformation of V and pVp              ... done
Second transformation of Veff                  ... done
Adding kinetic energy                          ... done
Back transformation of Veff to r-space         ... done
Recovering DKH matrices                        ... done
Recontracting the H-matrix (first version)     ... done
Computing the DKH correction to the H-matrix   ... done
Reading the original H-matrix                  ... done
Adding DKH correction to the H-matrix          ... done
Storing the new modified H-matrix              ... done


           ************************************************************
           *        Program running with 20 parallel MPI-processes    *
           *              working on a common directory               *
           ************************************************************
-------------------------------------------------------------------------------
                                 ORCA SCF
-------------------------------------------------------------------------------

------------
SCF SETTINGS
------------
Hamiltonian:
 Ab initio Hamiltonian  Method          .... Hartree-Fock(GTOs)
 RI-approximation to the Coulomb term is turned on
   Number of auxiliary basis functions  .... 1115
   RI-JK (J+K treated both via RI)      .... on

Relativistic Settings:
 Scalar relativistic method             .... Douglas-Kroll-Hess
 Order of DKH procedure    Order        ....    2
 Mode of DKH-treatment                  .... V=V(e,N)
 Speed of light used       Velit        ....       137.035989
 Cutoff-constant           Eps          ....            1e-10 


General Settings:
 Integral files         IntName         .... A-free-THF
 Hartree-Fock type      HFTyp           .... UHF
 Total Charge           Charge          ....    0
 Multiplicity           Mult            ....    1
 Number of Electrons    NEL             ....   40
 Basis Dimension        Dim             ....  200
 Nuclear Repulsion      ENuc            ....    189.8507437333 Eh

Convergence Acceleration:
 DIIS                   CNVDIIS         .... on
   Start iteration      DIISMaxIt       ....    12
   Startup error        DIISStart       ....  0.200000
   # of expansion vecs  DIISMaxEq       ....     5
   Bias factor          DIISBfac        ....   1.050
   Max. coefficient     DIISMaxC        ....  10.000
 Newton-Raphson         CNVNR           .... off
 SOSCF                  CNVSOSCF        .... off
 Level Shifting         CNVShift        .... on
   Level shift para.    LevelShift      ....    0.2500
   Turn off err/grad.   ShiftErr        ....    0.0010
 Zerner damping         CNVZerner       .... off
 Static damping         CNVDamp         .... on
   Fraction old density DampFac         ....    0.7000
   Max. Damping (<1)    DampMax         ....    0.9800
   Min. Damping (>=0)   DampMin         ....    0.0000
   Turn off err/grad.   DampErr         ....    0.1000
 Fernandez-Rico         CNVRico         .... off

SCF Procedure:
 Maximum # iterations   MaxIter         ....     0
 SCF integral mode      SCFMode         .... Direct
   Integral package                     .... LIBINT
 Reset frequency        DirectResetFreq ....    20
 Integral Threshold     Thresh          ....  1.000e-10 Eh
 Primitive CutOff       TCut            ....  1.000e-11 Eh

Convergence Tolerance:
 Convergence Check Mode ConvCheckMode   .... Total+1el-Energy
 Convergence forced     ConvForced      .... 1
 Energy Change          TolE            ....  1.000e-06 Eh
 1-El. energy change                    ....  1.000e-03 Eh
 DIIS Error             TolErr          ....  1.000e-06


Diagonalization of the overlap matrix:
Smallest eigenvalue                        ... 5.625e-05
Time for diagonalization                   ...    0.007 sec
Threshold for overlap eigenvalues          ... 1.000e-08
Number of eigenvalues below threshold      ... 0
Time for construction of square roots      ...    0.004 sec
Total time needed                          ...    0.011 sec

---------------------
INITIAL GUESS: MOREAD
---------------------
Guess MOs are being read from file: /home/akselim/richard_layfield/COTUCb/orca/HF02/A-free-THF.gbw
Input Geometry matches current geometry (good)
Input basis set matches current basis set (good)
MOs were renormalized
MOs were reorthogonalized (Cholesky)
                      ------------------
                      INITIAL GUESS DONE (   0.1 sec)
                      ------------------

     ****MaxIter==0 has been chosen - skipping the SCF****

!!!!!!!!!!!!!!!!!!!!!!!!!!!!!!!!!!!!!!!!!!!!!!!!!!!!!!!!!!!
!! SERIOUS WARNING: The orbitals and populations did NOT !!
!!                  come from a CONVERGED calculation    !!
!!!!!!!!!!!!!!!!!!!!!!!!!!!!!!!!!!!!!!!!!!!!!!!!!!!!!!!!!!!

THE WAVEFUNCTION AND DENSITY WILL STILL BE STORED BUT BE CAREFUL
MAKE SURE THAT WHAT YOU INPUT MAKES ACTUALLY SENSE!

             **** DENSITY FILE WAS UPDATED (A-free-THF.scfp) ****
----------------
ORBITAL ENERGIES
----------------
                 SPIN UP ORBITALS
  NO   OCC          E(Eh)            E(eV) 
   0   1.0000     -20.779841      -565.4482 
   1   1.0000     -11.303471      -307.5831 
   2   1.0000     -11.303348      -307.5797 
   3   1.0000     -11.249002      -306.1009 
   4   1.0000     -11.248431      -306.0854 
   5   1.0000      -1.575544       -42.8727 
   6   1.0000      -1.090122       -29.6637 
   7   1.0000      -1.047096       -28.4929 
   8   1.0000      -0.882113       -24.0035 
   9   1.0000      -0.848113       -23.0783 
  10   1.0000      -0.824355       -22.4319 
  11   1.0000      -0.765253       -20.8236 
  12   1.0000      -0.680768       -18.5246 
  13   1.0000      -0.648618       -17.6498 
  14   1.0000      -0.597432       -16.2569 
  15   1.0000      -0.583754       -15.8848 
  16   1.0000      -0.534923       -14.5560 
  17   1.0000      -0.517527       -14.0826 
  18   1.0000      -0.503290       -13.6952 
  19   1.0000      -0.483482       -13.1562 
  20   0.0000      -0.001853        -0.0504 
  21   0.0000       0.158143         4.3033 
  22   0.0000       0.170569         4.6414 
  23   0.0000       0.192707         5.2438 
  24   0.0000       0.214557         5.8384 
  25   0.0000       0.222288         6.0488 
  26   0.0000       0.246290         6.7019 
  27   0.0000       0.262435         7.1412 
  28   0.0000       0.265621         7.2279 
  29   0.0000       0.268880         7.3166 
  30   0.0000       0.293379         7.9832 
  31   0.0000       0.316951         8.6247 
  32   0.0000       0.326528         8.8853 
  33   0.0000       0.335498         9.1294 
  34   0.0000       0.337733         9.1902 
  35   0.0000       0.362490         9.8639 
  36   0.0000       0.372989        10.1496 
  37   0.0000       0.421964        11.4822 
  38   0.0000       0.429882        11.6977 
  39   0.0000       0.453024        12.3274 
  40   0.0000       0.478891        13.0313 
  41   0.0000       0.486007        13.2249 
  42   0.0000       0.524361        14.2686 
  43   0.0000       0.536091        14.5878 
  44   0.0000       0.562895        15.3171 
  45   0.0000       0.613785        16.7019 
  46   0.0000       0.614143        16.7117 
  47   0.0000       0.624476        16.9929 
  48   0.0000       0.641120        17.4458 
  49   0.0000       0.651507        17.7284 
  50   0.0000       0.690620        18.7927 
  51   0.0000       0.703765        19.1504 
  52   0.0000       0.715841        19.4790 
  53   0.0000       0.746452        20.3120 
  54   0.0000       0.764393        20.8002 
  55   0.0000       0.832275        22.6473 
  56   0.0000       0.845524        23.0079 
  57   0.0000       0.870427        23.6855 
  58   0.0000       0.874701        23.8018 
  59   0.0000       0.894410        24.3381 
  60   0.0000       0.901691        24.5363 
  61   0.0000       0.968423        26.3521 
  62   0.0000       1.029038        28.0015 
  63   0.0000       1.047662        28.5083 
  64   0.0000       1.095109        29.7994 
  65   0.0000       1.139211        30.9995 
  66   0.0000       1.143210        31.1083 
  67   0.0000       1.181395        32.1474 
  68   0.0000       1.242581        33.8123 
  69   0.0000       1.257877        34.2286 
  70   0.0000       1.262161        34.3452 
  71   0.0000       1.290401        35.1136 
  72   0.0000       1.351968        36.7889 
  73   0.0000       1.382097        37.6088 
  74   0.0000       1.382303        37.6144 
  75   0.0000       1.449023        39.4299 
  76   0.0000       1.463119        39.8135 
  77   0.0000       1.472563        40.0705 
  78   0.0000       1.527683        41.5704 
  79   0.0000       1.584965        43.1291 
  80   0.0000       1.614043        43.9203 
  81   0.0000       1.659408        45.1548 
  82   0.0000       1.744698        47.4757 
  83   0.0000       1.830762        49.8176 
  84   0.0000       1.836774        49.9812 
  85   0.0000       1.855899        50.5016 
  86   0.0000       1.930306        52.5263 
  87   0.0000       1.943303        52.8800 
  88   0.0000       1.972414        53.6721 
  89   0.0000       2.005771        54.5798 
  90   0.0000       2.009929        54.6929 
  91   0.0000       2.026314        55.1388 
  92   0.0000       2.056956        55.9726 
  93   0.0000       2.084121        56.7118 
  94   0.0000       2.087596        56.8064 
  95   0.0000       2.132084        58.0170 
  96   0.0000       2.133732        58.0618 
  97   0.0000       2.167758        58.9877 
  98   0.0000       2.224892        60.5424 
  99   0.0000       2.283529        62.1380 
 100   0.0000       2.300105        62.5891 
 101   0.0000       2.348599        63.9086 
 102   0.0000       2.354562        64.0709 
 103   0.0000       2.363104        64.3033 
 104   0.0000       2.431353        66.1605 
 105   0.0000       2.441562        66.4383 
 106   0.0000       2.494049        67.8665 
 107   0.0000       2.497400        67.9577 
 108   0.0000       2.530810        68.8668 
 109   0.0000       2.550692        69.4078 
 110   0.0000       2.633017        71.6480 
 111   0.0000       2.681526        72.9680 
 112   0.0000       2.696212        73.3677 
 113   0.0000       2.739681        74.5505 
 114   0.0000       2.746285        74.7302 
 115   0.0000       2.787168        75.8427 
 116   0.0000       2.792444        75.9863 
 117   0.0000       2.843418        77.3733 
 118   0.0000       2.855938        77.7140 
 119   0.0000       2.933590        79.8270 
 120   0.0000       2.967528        80.7505 
 121   0.0000       2.980270        81.0973 
 122   0.0000       3.058534        83.2269 
 123   0.0000       3.063664        83.3665 
 124   0.0000       3.114416        84.7476 
 125   0.0000       3.140703        85.4629 
 126   0.0000       3.154399        85.8356 
 127   0.0000       3.184751        86.6615 
 128   0.0000       3.249635        88.4271 
 129   0.0000       3.267984        88.9264 
 130   0.0000       3.284355        89.3718 
 131   0.0000       3.316095        90.2355 
 132   0.0000       3.357412        91.3598 
 133   0.0000       3.375523        91.8527 
 134   0.0000       3.388487        92.2054 
 135   0.0000       3.417199        92.9867 
 136   0.0000       3.436925        93.5235 
 137   0.0000       3.479910        94.6932 
 138   0.0000       3.498954        95.2114 
 139   0.0000       3.512021        95.5669 
 140   0.0000       3.532041        96.1117 
 141   0.0000       3.585711        97.5721 
 142   0.0000       3.614774        98.3630 
 143   0.0000       3.643386        99.1416 
 144   0.0000       3.651027        99.3495 
 145   0.0000       3.674925        99.9998 
 146   0.0000       3.742195       101.8303 
 147   0.0000       3.775732       102.7429 
 148   0.0000       3.816854       103.8619 
 149   0.0000       3.848516       104.7235 
 150   0.0000       3.867262       105.2336 
 151   0.0000       3.885778       105.7374 
 152   0.0000       3.923563       106.7656 
 153   0.0000       4.034494       109.7842 
 154   0.0000       4.042965       110.0147 
 155   0.0000       4.061778       110.5266 
 156   0.0000       4.076336       110.9227 
 157   0.0000       4.125369       112.2570 
 158   0.0000       4.161880       113.2505 
 159   0.0000       4.203499       114.3830 
 160   0.0000       4.271588       116.2358 
 161   0.0000       4.334389       117.9447 
 162   0.0000       4.363615       118.7400 
 163   0.0000       4.425292       120.4183 
 164   0.0000       4.483629       122.0057 
 165   0.0000       4.531539       123.3094 
 166   0.0000       4.557365       124.0122 
 167   0.0000       4.583640       124.7272 
 168   0.0000       4.634918       126.1225 
 169   0.0000       4.671710       127.1237 
 170   0.0000       4.743518       129.0777 
 171   0.0000       4.875472       132.6683 
 172   0.0000       4.919553       133.8678 
 173   0.0000       4.960769       134.9894 
 174   0.0000       5.057159       137.6123 
 175   0.0000       5.100771       138.7990 
 176   0.0000       5.211059       141.8001 
 177   0.0000       5.292356       144.0123 
 178   0.0000       5.672902       154.3675 
 179   0.0000       5.717507       155.5813 
 180   0.0000       6.013582       163.6379 
 181   0.0000       6.033717       164.1858 
 182   0.0000       6.060864       164.9245 
 183   0.0000       6.333779       172.3509 
 184   0.0000       6.494463       176.7233 
 185   0.0000       7.000512       190.4936 
 186   0.0000       7.058906       192.0826 
 187   0.0000       7.140692       194.3081 
 188   0.0000       7.454098       202.8363 
 189   0.0000       7.560766       205.7389 
 190   0.0000       8.181982       222.6430 
 191   0.0000       8.508690       231.5332 
 192   0.0000       8.685140       236.3347 
 193   0.0000       8.794649       239.3146 
 194   0.0000      15.412695       419.4008 
 195   0.0000      40.249646      1095.2486 
 196   0.0000      40.559549      1103.6814 
 197   0.0000      40.654360      1106.2614 
 198   0.0000      40.857068      1111.7773 
 199   0.0000      79.046415      2150.9623 

                 SPIN DOWN ORBITALS
  NO   OCC          E(Eh)            E(eV) 
   0   1.0000     -20.731232      -564.1255 
   1   1.0000     -11.298831      -307.4568 
   2   1.0000     -11.298685      -307.4529 
   3   1.0000     -11.247956      -306.0724 
   4   1.0000     -11.247409      -306.0575 
   5   1.0000      -1.428526       -38.8722 
   6   1.0000      -1.068005       -29.0619 
   7   1.0000      -1.028090       -27.9758 
   8   1.0000      -0.840247       -22.8643 
   9   1.0000      -0.834292       -22.7023 
  10   1.0000      -0.734628       -19.9903 
  11   1.0000      -0.669412       -18.2156 
  12   1.0000      -0.655450       -17.8357 
  13   1.0000      -0.583594       -15.8804 
  14   1.0000      -0.579214       -15.7612 
  15   1.0000      -0.545738       -14.8503 
  16   1.0000      -0.509181       -13.8555 
  17   1.0000      -0.497079       -13.5262 
  18   1.0000      -0.474191       -12.9034 
  19   1.0000       0.002789         0.0759 
  20   0.0000       0.172009         4.6806 
  21   0.0000       0.202680         5.5152 
  22   0.0000       0.214326         5.8321 
  23   0.0000       0.225589         6.1386 
  24   0.0000       0.236095         6.4245 
  25   0.0000       0.236989         6.4488 
  26   0.0000       0.265098         7.2137 
  27   0.0000       0.271937         7.3998 
  28   0.0000       0.286252         7.7893 
  29   0.0000       0.295581         8.0432 
  30   0.0000       0.309439         8.4203 
  31   0.0000       0.325212         8.8495 
  32   0.0000       0.341721         9.2987 
  33   0.0000       0.342505         9.3200 
  34   0.0000       0.356592         9.7033 
  35   0.0000       0.371853        10.1186 
  36   0.0000       0.385732        10.4963 
  37   0.0000       0.435623        11.8539 
  38   0.0000       0.438352        11.9282 
  39   0.0000       0.477016        12.9803 
  40   0.0000       0.497184        13.5291 
  41   0.0000       0.515539        14.0285 
  42   0.0000       0.541157        14.7256 
  43   0.0000       0.551527        15.0078 
  44   0.0000       0.574501        15.6330 
  45   0.0000       0.620071        16.8730 
  46   0.0000       0.632800        17.2194 
  47   0.0000       0.634547        17.2669 
  48   0.0000       0.656706        17.8699 
  49   0.0000       0.659812        17.9544 
  50   0.0000       0.711013        19.3477 
  51   0.0000       0.716829        19.5059 
  52   0.0000       0.743189        20.2232 
  53   0.0000       0.754096        20.5200 
  54   0.0000       0.813705        22.1420 
  55   0.0000       0.840804        22.8794 
  56   0.0000       0.856104        23.2958 
  57   0.0000       0.884729        24.0747 
  58   0.0000       0.887883        24.1605 
  59   0.0000       0.900961        24.5164 
  60   0.0000       0.918580        24.9958 
  61   0.0000       0.983779        26.7700 
  62   0.0000       1.032761        28.1029 
  63   0.0000       1.053987        28.6804 
  64   0.0000       1.101242        29.9663 
  65   0.0000       1.144500        31.1434 
  66   0.0000       1.147391        31.2221 
  67   0.0000       1.194001        32.4904 
  68   0.0000       1.247131        33.9362 
  69   0.0000       1.263555        34.3831 
  70   0.0000       1.269730        34.5511 
  71   0.0000       1.296762        35.2867 
  72   0.0000       1.356215        36.9045 
  73   0.0000       1.389761        37.8173 
  74   0.0000       1.395060        37.9615 
  75   0.0000       1.454059        39.5670 
  76   0.0000       1.475343        40.1461 
  77   0.0000       1.480820        40.2952 
  78   0.0000       1.531882        41.6846 
  79   0.0000       1.590186        43.2712 
  80   0.0000       1.619471        44.0680 
  81   0.0000       1.681929        45.7676 
  82   0.0000       1.768111        48.1128 
  83   0.0000       1.840080        50.0711 
  84   0.0000       1.849618        50.3307 
  85   0.0000       1.862606        50.6841 
  86   0.0000       1.938630        52.7528 
  87   0.0000       1.948846        53.0308 
  88   0.0000       1.999499        54.4091 
  89   0.0000       2.010875        54.7187 
  90   0.0000       2.021316        55.0028 
  91   0.0000       2.050509        55.7972 
  92   0.0000       2.062329        56.1188 
  93   0.0000       2.087472        56.8030 
  94   0.0000       2.105348        57.2894 
  95   0.0000       2.146045        58.3968 
  96   0.0000       2.146413        58.4069 
  97   0.0000       2.177211        59.2449 
  98   0.0000       2.234889        60.8144 
  99   0.0000       2.289465        62.2995 
 100   0.0000       2.316116        63.0247 
 101   0.0000       2.359479        64.2047 
 102   0.0000       2.369972        64.4902 
 103   0.0000       2.393746        65.1371 
 104   0.0000       2.436493        66.3003 
 105   0.0000       2.448764        66.6342 
 106   0.0000       2.499355        68.0109 
 107   0.0000       2.503182        68.1150 
 108   0.0000       2.538416        69.0738 
 109   0.0000       2.556226        69.5585 
 110   0.0000       2.637008        71.7566 
 111   0.0000       2.696796        73.3835 
 112   0.0000       2.708844        73.7114 
 113   0.0000       2.745061        74.6969 
 114   0.0000       2.769591        75.3644 
 115   0.0000       2.796718        76.1026 
 116   0.0000       2.799653        76.1824 
 117   0.0000       2.846354        77.4532 
 118   0.0000       2.863312        77.9147 
 119   0.0000       2.964776        80.6757 
 120   0.0000       2.969929        80.8159 
 121   0.0000       2.988091        81.3101 
 122   0.0000       3.067025        83.4580 
 123   0.0000       3.079619        83.8007 
 124   0.0000       3.118448        84.8573 
 125   0.0000       3.158845        85.9565 
 126   0.0000       3.176080        86.4255 
 127   0.0000       3.203013        87.1584 
 128   0.0000       3.253760        88.5393 
 129   0.0000       3.279257        89.2331 
 130   0.0000       3.288349        89.4805 
 131   0.0000       3.334988        90.7496 
 132   0.0000       3.363235        91.5183 
 133   0.0000       3.384841        92.1062 
 134   0.0000       3.393864        92.3517 
 135   0.0000       3.424365        93.1817 
 136   0.0000       3.443505        93.7025 
 137   0.0000       3.484772        94.8255 
 138   0.0000       3.507599        95.4466 
 139   0.0000       3.516360        95.6850 
 140   0.0000       3.536213        96.2252 
 141   0.0000       3.592175        97.7480 
 142   0.0000       3.619072        98.4800 
 143   0.0000       3.645762        99.2062 
 144   0.0000       3.654457        99.4428 
 145   0.0000       3.688002       100.3556 
 146   0.0000       3.760318       102.3234 
 147   0.0000       3.778588       102.8206 
 148   0.0000       3.820781       103.9687 
 149   0.0000       3.861604       105.0796 
 150   0.0000       3.869785       105.3022 
 151   0.0000       3.895226       105.9945 
 152   0.0000       3.927932       106.8845 
 153   0.0000       4.037877       109.8762 
 154   0.0000       4.048795       110.1733 
 155   0.0000       4.066664       110.6596 
 156   0.0000       4.078960       110.9941 
 157   0.0000       4.130608       112.3995 
 158   0.0000       4.165114       113.3385 
 159   0.0000       4.210420       114.5714 
 160   0.0000       4.274146       116.3054 
 161   0.0000       4.338716       118.0625 
 162   0.0000       4.367403       118.8431 
 163   0.0000       4.432954       120.6268 
 164   0.0000       4.487041       122.0986 
 165   0.0000       4.538794       123.5069 
 166   0.0000       4.559328       124.0656 
 167   0.0000       4.586254       124.7983 
 168   0.0000       4.636752       126.1724 
 169   0.0000       4.678109       127.2978 
 170   0.0000       4.747494       129.1859 
 171   0.0000       4.886519       132.9689 
 172   0.0000       4.944134       134.5367 
 173   0.0000       4.962949       135.0487 
 174   0.0000       5.060740       137.7097 
 175   0.0000       5.113941       139.1574 
 176   0.0000       5.214197       141.8855 
 177   0.0000       5.301493       144.2609 
 178   0.0000       5.722775       155.7246 
 179   0.0000       5.771390       157.0475 
 180   0.0000       6.067669       165.1097 
 181   0.0000       6.070633       165.1903 
 182   0.0000       6.114876       166.3942 
 183   0.0000       6.361668       173.1098 
 184   0.0000       6.509118       177.1221 
 185   0.0000       7.093969       193.0367 
 186   0.0000       7.152433       194.6276 
 187   0.0000       7.220883       196.4902 
 188   0.0000       7.482446       203.6077 
 189   0.0000       7.580546       206.2771 
 190   0.0000       8.184432       222.7097 
 191   0.0000       8.511554       231.6111 
 192   0.0000       8.690714       236.4863 
 193   0.0000       8.799437       239.4449 
 194   0.0000      15.456383       420.5896 
 195   0.0000      40.251057      1095.2869 
 196   0.0000      40.561829      1103.7435 
 197   0.0000      40.656527      1106.3204 
 198   0.0000      40.858344      1111.8121 
 199   0.0000      79.063911      2151.4384 

                    ********************************
                    * MULLIKEN POPULATION ANALYSIS *
                    ********************************

--------------------------------------------
MULLIKEN ATOMIC CHARGES AND SPIN POPULATIONS
--------------------------------------------
   0 C :   -0.050166   -0.162416
   1 O :   -0.627934    0.260003
   2 C :   -0.050283   -0.162441
   3 C :   -0.183342    0.035498
   4 C :   -0.183794    0.035735
   5 H :    0.140544   -0.015087
   6 H :    0.155198    0.039450
   7 H :    0.154968    0.039352
   8 H :    0.140518   -0.015033
   9 H :    0.136473   -0.020035
  10 H :    0.115696   -0.007351
  11 H :    0.136309   -0.020338
  12 H :    0.115815   -0.007337
Sum of atomic charges         :   -0.0000000
Sum of atomic spin populations:    0.0000000

-----------------------------------------------------
MULLIKEN REDUCED ORBITAL CHARGES AND SPIN POPULATIONS
-----------------------------------------------------
CHARGE
  0 C s       :     3.252094  s :     3.252094
      pz      :     0.859315  p :     2.655336
      px      :     1.049300
      py      :     0.746720
      dz2     :     0.037220  d :     0.131499
      dxz     :     0.010771
      dyz     :     0.031364
      dx2y2   :     0.031273
      dxy     :     0.020871
      f0      :     0.001109  f :     0.011237
      f+1     :     0.000854
      f-1     :     0.002540
      f+2     :     0.001771
      f-2     :     0.001862
      f+3     :     0.001792
      f-3     :     0.001308
  1 O s       :     3.799883  s :     3.799883
      pz      :     1.643413  p :     4.784835
      px      :     1.498146
      py      :     1.643276
      dz2     :     0.006666  d :     0.041483
      dxz     :     0.006165
      dyz     :     0.008675
      dx2y2   :     0.012977
      dxy     :     0.007000
      f0      :     0.000229  f :     0.001733
      f+1     :     0.000156
      f-1     :     0.000248
      f+2     :     0.000342
      f-2     :     0.000205
      f+3     :     0.000284
      f-3     :     0.000270
  2 C s       :     3.251807  s :     3.251807
      pz      :     1.105503  p :     2.655711
      px      :     0.545180
      py      :     1.005028
      dz2     :     0.015452  d :     0.131530
      dxz     :     0.027525
      dyz     :     0.028467
      dx2y2   :     0.032208
      dxy     :     0.027878
      f0      :     0.001020  f :     0.011236
      f+1     :     0.001497
      f-1     :     0.001441
      f+2     :     0.001858
      f-2     :     0.000602
      f+3     :     0.002548
      f-3     :     0.002270
  3 C s       :     3.214953  s :     3.214953
      pz      :     0.997396  p :     2.862605
      px      :     0.996267
      py      :     0.868943
      dz2     :     0.024290  d :     0.098289
      dxz     :     0.010284
      dyz     :     0.021437
      dx2y2   :     0.027007
      dxy     :     0.015271
      f0      :     0.001316  f :     0.007494
      f+1     :     0.000579
      f-1     :     0.001067
      f+2     :     0.001449
      f-2     :     0.000543
      f+3     :     0.001201
      f-3     :     0.001339
  4 C s       :     3.214850  s :     3.214850
      pz      :     1.012826  p :     2.863113
      px      :     0.933869
      py      :     0.916418
      dz2     :     0.013076  d :     0.098336
      dxz     :     0.015256
      dyz     :     0.029618
      dx2y2   :     0.016117
      dxy     :     0.024269
      f0      :     0.000628  f :     0.007495
      f+1     :     0.001102
      f-1     :     0.000956
      f+2     :     0.000675
      f-2     :     0.001947
      f+3     :     0.001324
      f-3     :     0.000863
  5 H s       :     0.836743  s :     0.836743
      pz      :     0.002986  p :     0.022713
      px      :     0.016555
      py      :     0.003172
  6 H s       :     0.820135  s :     0.820135
      pz      :     0.017293  p :     0.024667
      px      :     0.004411
      py      :     0.002962
  7 H s       :     0.820367  s :     0.820367
      pz      :     0.011199  p :     0.024665
      px      :     0.007561
      py      :     0.005905
  8 H s       :     0.836769  s :     0.836769
      pz      :     0.012508  p :     0.022713
      px      :     0.002465
      py      :     0.007740
  9 H s       :     0.840152  s :     0.840152
      pz      :     0.005162  p :     0.023375
      px      :     0.014242
      py      :     0.003971
 10 H s       :     0.861621  s :     0.861621
      pz      :     0.014405  p :     0.022684
      px      :     0.003788
      py      :     0.004490
 11 H s       :     0.840315  s :     0.840315
      pz      :     0.010676  p :     0.023376
      px      :     0.005099
      py      :     0.007600
 12 H s       :     0.861505  s :     0.861505
      pz      :     0.007594  p :     0.022681
      px      :     0.006975
      py      :     0.008112

SPIN
  0 C s       :    -0.028763  s :    -0.028763
      pz      :    -0.074483  p :    -0.117042
      px      :     0.002315
      py      :    -0.044873
      dz2     :    -0.010278  d :    -0.016231
      dxz     :    -0.000295
      dyz     :    -0.001446
      dx2y2   :    -0.002508
      dxy     :    -0.001705
      f0      :    -0.000040  f :    -0.000380
      f+1     :     0.000068
      f-1     :    -0.000175
      f+2     :    -0.000073
      f-2     :    -0.000026
      f+3     :    -0.000100
      f-3     :    -0.000034
  1 O s       :     0.046123  s :     0.046123
      pz      :     0.109688  p :     0.216493
      px      :     0.035933
      py      :     0.070871
      dz2     :    -0.000159  d :    -0.002097
      dxz     :    -0.000426
      dyz     :    -0.000977
      dx2y2   :    -0.000466
      dxy     :    -0.000069
      f0      :    -0.000107  f :    -0.000515
      f+1     :    -0.000087
      f-1     :    -0.000082
      f+2     :    -0.000143
      f-2     :    -0.000035
      f+3     :    -0.000061
      f-3     :     0.000000
  2 C s       :    -0.028710  s :    -0.028710
      pz      :    -0.038212  p :    -0.117112
      px      :    -0.054890
      py      :    -0.024010
      dz2     :    -0.001233  d :    -0.016238
      dxz     :    -0.008952
      dyz     :    -0.000646
      dx2y2   :    -0.001475
      dxy     :    -0.003933
      f0      :    -0.000082  f :    -0.000381
      f+1     :    -0.000091
      f-1     :    -0.000050
      f+2     :    -0.000098
      f-2     :     0.000015
      f+3     :    -0.000095
      f-3     :     0.000021
  3 C s       :     0.038107  s :     0.038107
      pz      :     0.001270  p :    -0.000859
      px      :     0.004591
      py      :    -0.006721
      dz2     :    -0.000284  d :    -0.001627
      dxz     :    -0.000456
      dyz     :    -0.000271
      dx2y2   :    -0.000356
      dxy     :    -0.000259
      f0      :    -0.000038  f :    -0.000123
      f+1     :    -0.000011
      f-1     :    -0.000003
      f+2     :    -0.000029
      f-2     :    -0.000002
      f+3     :    -0.000024
      f-3     :    -0.000016
  4 C s       :     0.038442  s :     0.038442
      pz      :     0.005576  p :    -0.000955
      px      :    -0.009641
      py      :     0.003109
      dz2     :    -0.000420  d :    -0.001629
      dxz     :    -0.000400
      dyz     :    -0.001118
      dx2y2   :    -0.000079
      dxy     :     0.000388
      f0      :     0.000004  f :    -0.000123
      f+1     :    -0.000010
      f-1     :    -0.000042
      f+2     :     0.000001
      f-2     :    -0.000059
      f+3     :    -0.000004
      f-3     :    -0.000013
  5 H s       :    -0.014936  s :    -0.014936
      pz      :    -0.000222  p :    -0.000151
      px      :     0.000059
      py      :     0.000011
  6 H s       :     0.040677  s :     0.040677
      pz      :    -0.001005  p :    -0.001228
      px      :     0.000005
      py      :    -0.000228
  7 H s       :     0.040584  s :     0.040584
      pz      :    -0.000350  p :    -0.001231
      px      :    -0.000775
      py      :    -0.000107
  8 H s       :    -0.014881  s :    -0.014881
      pz      :    -0.000060  p :    -0.000152
      px      :    -0.000145
      py      :     0.000053
  9 H s       :    -0.020066  s :    -0.020066
      pz      :    -0.000040  p :     0.000031
      px      :     0.000102
      py      :    -0.000030
 10 H s       :    -0.007226  s :    -0.007226
      pz      :     0.000003  p :    -0.000125
      px      :    -0.000011
      py      :    -0.000117
 11 H s       :    -0.020370  s :    -0.020370
      pz      :    -0.000006  p :     0.000032
      px      :    -0.000034
      py      :     0.000073
 12 H s       :    -0.007214  s :    -0.007214
      pz      :    -0.000047  p :    -0.000123
      px      :     0.000034
      py      :    -0.000110


                     *******************************
                     * LOEWDIN POPULATION ANALYSIS *
                     *******************************

-------------------------------------------
LOEWDIN ATOMIC CHARGES AND SPIN POPULATIONS
-------------------------------------------
   0 C :   -0.422018   -0.078497
   1 O :   -0.123991    0.218612
   2 C :   -0.421970   -0.078549
   3 C :   -0.411158   -0.012899
   4 C :   -0.411329   -0.012930
   5 H :    0.218894   -0.005019
   6 H :    0.228027   -0.004522
   7 H :    0.227939   -0.004522
   8 H :    0.218850   -0.005019
   9 H :    0.230147   -0.006637
  10 H :    0.218234   -0.001667
  11 H :    0.230143   -0.006669
  12 H :    0.218231   -0.001681

----------------------------------------------------
LOEWDIN REDUCED ORBITAL CHARGES AND SPIN POPULATIONS
----------------------------------------------------
CHARGE
  0 C s       :     2.851193  s :     2.851193
      pz      :     0.962721  p :     2.922419
      px      :     1.092987
      py      :     0.866710
      dz2     :     0.158100  d :     0.568869
      dxz     :     0.050733
      dyz     :     0.137037
      dx2y2   :     0.142094
      dxy     :     0.080905
      f0      :     0.006855  f :     0.079537
      f+1     :     0.006988
      f-1     :     0.017187
      f+2     :     0.014386
      f-2     :     0.014630
      f+3     :     0.009825
      f-3     :     0.009666
  1 O s       :     3.342200  s :     3.342200
      pz      :     1.586760  p :     4.670169
      px      :     1.496894
      py      :     1.586514
      dz2     :     0.017842  d :     0.104897
      dxz     :     0.021804
      dyz     :     0.016483
      dx2y2   :     0.027286
      dxy     :     0.021482
      f0      :     0.000688  f :     0.006725
      f+1     :     0.000594
      f-1     :     0.000999
      f+2     :     0.001212
      f-2     :     0.000763
      f+3     :     0.000949
      f-3     :     0.001520
  2 C s       :     2.851261  s :     2.851261
      pz      :     1.118994  p :     2.922496
      px      :     0.720700
      py      :     1.082801
      dz2     :     0.067415  d :     0.568708
      dxz     :     0.120945
      dyz     :     0.111016
      dx2y2   :     0.146355
      dxy     :     0.122978
      f0      :     0.007092  f :     0.079506
      f+1     :     0.011538
      f-1     :     0.006488
      f+2     :     0.012059
      f-2     :     0.006154
      f+3     :     0.018280
      f-3     :     0.017894
  3 C s       :     2.829458  s :     2.829458
      pz      :     1.068544  p :     3.127278
      px      :     1.058384
      py      :     1.000350
      dz2     :     0.104849  d :     0.410146
      dxz     :     0.050247
      dyz     :     0.078474
      dx2y2   :     0.111724
      dxy     :     0.064852
      f0      :     0.006568  f :     0.044275
      f+1     :     0.003604
      f-1     :     0.005839
      f+2     :     0.009180
      f-2     :     0.004821
      f+3     :     0.007831
      f-3     :     0.006432
  4 C s       :     2.829442  s :     2.829442
      pz      :     1.069370  p :     3.127300
      px      :     1.028400
      py      :     1.029529
      dz2     :     0.046236  d :     0.410304
      dxz     :     0.077353
      dyz     :     0.116203
      dx2y2   :     0.059743
      dxy     :     0.110768
      f0      :     0.004420  f :     0.044284
      f+1     :     0.007337
      f-1     :     0.005759
      f+2     :     0.003911
      f-2     :     0.007168
      f+3     :     0.008906
      f-3     :     0.006783
  5 H s       :     0.726080  s :     0.726080
      pz      :     0.010208  p :     0.055026
      px      :     0.035194
      py      :     0.009624
  6 H s       :     0.714063  s :     0.714063
      pz      :     0.035647  p :     0.057910
      px      :     0.013635
      py      :     0.008628
  7 H s       :     0.714145  s :     0.714145
      pz      :     0.025751  p :     0.057916
      px      :     0.017070
      py      :     0.015095
  8 H s       :     0.726116  s :     0.726116
      pz      :     0.028747  p :     0.055033
      px      :     0.007526
      py      :     0.018760
  9 H s       :     0.713179  s :     0.713179
      pz      :     0.015087  p :     0.056674
      px      :     0.029522
      py      :     0.012066
 10 H s       :     0.726139  s :     0.726139
      pz      :     0.030063  p :     0.055627
      px      :     0.012513
      py      :     0.013051
 11 H s       :     0.713180  s :     0.713180
      pz      :     0.024325  p :     0.056677
      px      :     0.014634
      py      :     0.017718
 12 H s       :     0.726147  s :     0.726147
      pz      :     0.019605  p :     0.055622
      px      :     0.017566
      py      :     0.018451

SPIN
  0 C s       :     0.000155  s :     0.000155
      pz      :    -0.032670  p :    -0.048326
      px      :     0.003899
      py      :    -0.019555
      dz2     :    -0.030384  d :    -0.033578
      dxz     :    -0.001534
      dyz     :     0.001672
      dx2y2   :    -0.003026
      dxy     :    -0.000306
      f0      :     0.000580  f :     0.003251
      f+1     :     0.000130
      f-1     :     0.001046
      f+2     :     0.000648
      f-2     :     0.000479
      f+3     :     0.000081
      f-3     :     0.000288
  1 O s       :     0.030075  s :     0.030075
      pz      :     0.098294  p :     0.191473
      px      :     0.025882
      py      :     0.067297
      dz2     :    -0.000840  d :    -0.002739
      dxz     :    -0.000709
      dyz     :    -0.000017
      dx2y2   :    -0.000558
      dxy     :    -0.000615
      f0      :    -0.000088  f :    -0.000197
      f+1     :    -0.000023
      f-1     :     0.000059
      f+2     :    -0.000100
      f-2     :     0.000031
      f+3     :    -0.000072
      f-3     :    -0.000004
  2 C s       :     0.000134  s :     0.000134
      pz      :    -0.001829  p :    -0.048346
      px      :    -0.039873
      py      :    -0.006644
      dz2     :     0.000600  d :    -0.033586
      dxz     :    -0.018718
      dyz     :    -0.000615
      dx2y2   :    -0.004908
      dxy     :    -0.009945
      f0      :     0.000589  f :     0.003249
      f+1     :     0.000228
      f-1     :    -0.000052
      f+2     :     0.000767
      f-2     :     0.000238
      f+3     :     0.001061
      f-3     :     0.000420
  3 C s       :    -0.004801  s :    -0.004801
      pz      :    -0.000774  p :     0.000522
      px      :     0.001743
      py      :    -0.000447
      dz2     :    -0.001525  d :    -0.008116
      dxz     :    -0.002811
      dyz     :    -0.000093
      dx2y2   :    -0.000444
      dxy     :    -0.003242
      f0      :    -0.000065  f :    -0.000504
      f+1     :    -0.000032
      f-1     :    -0.000055
      f+2     :     0.000030
      f-2     :    -0.000050
      f+3     :    -0.000265
      f-3     :    -0.000067
  4 C s       :    -0.004807  s :    -0.004807
      pz      :     0.001632  p :     0.000540
      px      :    -0.002043
      py      :     0.000951
      dz2     :    -0.000677  d :    -0.008157
      dxz     :    -0.001520
      dyz     :    -0.001235
      dx2y2   :    -0.000462
      dxy     :    -0.004263
      f0      :     0.000015  f :    -0.000506
      f+1     :    -0.000080
      f-1     :    -0.000202
      f+2     :     0.000041
      f-2     :    -0.000078
      f+3     :    -0.000120
      f-3     :    -0.000082
  5 H s       :    -0.004268  s :    -0.004268
      pz      :    -0.000733  p :    -0.000751
      px      :    -0.000043
      py      :     0.000024
  6 H s       :    -0.001013  s :    -0.001013
      pz      :    -0.002833  p :    -0.003509
      px      :    -0.000145
      py      :    -0.000531
  7 H s       :    -0.001006  s :    -0.001006
      pz      :    -0.001303  p :    -0.003517
      px      :    -0.002054
      py      :    -0.000160
  8 H s       :    -0.004265  s :    -0.004265
      pz      :    -0.000175  p :    -0.000754
      px      :    -0.000553
      py      :    -0.000026
  9 H s       :    -0.006119  s :    -0.006119
      pz      :    -0.000068  p :    -0.000518
      px      :    -0.000165
      py      :    -0.000285
 10 H s       :    -0.001365  s :    -0.001365
      pz      :    -0.000088  p :    -0.000301
      px      :     0.000068
      py      :    -0.000281
 11 H s       :    -0.006152  s :    -0.006152
      pz      :     0.000019  p :    -0.000517
      px      :    -0.000305
      py      :    -0.000231
 12 H s       :    -0.001381  s :    -0.001381
      pz      :    -0.000355  p :    -0.000300
      px      :     0.000119
      py      :    -0.000065


                      *****************************
                      * MAYER POPULATION ANALYSIS *
                      *****************************

  NA   - Mulliken gross atomic population
  ZA   - Total nuclear charge
  QA   - Mulliken gross atomic charge
  VA   - Mayer's total valence
  BVA  - Mayer's bonded valence
  FA   - Mayer's free valence

  ATOM       NA         ZA         QA         VA         BVA        FA
  0 C      6.0502     6.0000    -0.0502     3.7661     3.7518     0.0144
  1 O      8.6279     8.0000    -0.6279     1.8385     1.7008     0.1377
  2 C      6.0503     6.0000    -0.0503     3.7665     3.7521     0.0143
  3 C      6.1833     6.0000    -0.1833     3.6368     3.6369    -0.0001
  4 C      6.1838     6.0000    -0.1838     3.6367     3.6367    -0.0001
  5 H      0.8595     1.0000     0.1405     0.9445     0.9443     0.0002
  6 H      0.8448     1.0000     0.1552     0.9430     0.9414     0.0016
  7 H      0.8450     1.0000     0.1550     0.9429     0.9413     0.0016
  8 H      0.8595     1.0000     0.1405     0.9443     0.9442     0.0002
  9 H      0.8635     1.0000     0.1365     0.9737     0.9734     0.0003
 10 H      0.8843     1.0000     0.1157     0.9643     0.9642     0.0000
 11 H      0.8637     1.0000     0.1363     0.9739     0.9736     0.0003
 12 H      0.8842     1.0000     0.1158     0.9641     0.9641     0.0000

  Mayer bond orders larger than 0.100000
B(  0-C ,  1-O ) :   0.8789 B(  0-C ,  4-C ) :   0.9173 B(  0-C ,  5-H ) :   0.9702 
B(  0-C ,  6-H ) :   0.9755 B(  1-O ,  2-C ) :   0.8793 B(  2-C ,  3-C ) :   0.9177 
B(  2-C ,  7-H ) :   0.9753 B(  2-C ,  8-H ) :   0.9701 B(  3-C ,  4-C ) :   0.9144 
B(  3-C ,  9-H ) :   0.9732 B(  3-C , 10-H ) :   0.9935 B(  4-C , 11-H ) :   0.9730 
B(  4-C , 12-H ) :   0.9935 


                ***UHF Natural Orbitals were saved in A-free-THF.unso***


                ***UHF Natural Orbitals were saved in A-free-THF.uno***

QR-MO GENERATION
 Dim     =  200
 Mult    =    1
 NEl     =   40
 N(DOMO) =   20
 N(SOMO) =    0
 N(VMO)  =  180


                ***Quasi-Restricted Orbitals were saved in A-free-THF.qro***

Orbital Energies of Quasi-Restricted MO's
   0( 2) :   -20.272002 a.u.  -551.629 eV
   1( 2) :   -11.257413 a.u.  -306.330 eV
   2( 2) :   -11.257331 a.u.  -306.328 eV
   3( 2) :   -11.231688 a.u.  -305.630 eV
   4( 2) :   -11.231125 a.u.  -305.614 eV
   5( 2) :    -1.244228 a.u.   -33.857 eV
   6( 2) :    -1.029530 a.u.   -28.015 eV
   7( 2) :    -0.970524 a.u.   -26.409 eV
   8( 2) :    -0.797977 a.u.   -21.714 eV
   9( 2) :    -0.788672 a.u.   -21.461 eV
  10( 2) :    -0.657800 a.u.   -17.900 eV
  11( 2) :    -0.638030 a.u.   -17.362 eV
  12( 2) :    -0.588764 a.u.   -16.021 eV
  13( 2) :    -0.555010 a.u.   -15.103 eV
  14( 2) :    -0.489598 a.u.   -13.323 eV
  15( 2) :    -0.484369 a.u.   -13.180 eV
  16( 2) :    -0.476490 a.u.   -12.966 eV
  17( 2) :    -0.464647 a.u.   -12.644 eV
  18( 2) :    -0.384042 a.u.   -10.450 eV
  19( 2) :    -0.220694 a.u.    -6.005 eV
  20( 0) :     0.183602 a.u.     4.996 eV
  21( 0) :     0.207017 a.u.     5.633 eV
  22( 0) :     0.209520 a.u.     5.701 eV
  23( 0) :     0.224027 a.u.     6.096 eV
  24( 0) :     0.241255 a.u.     6.565 eV
  25( 0) :     0.241335 a.u.     6.567 eV
  26( 0) :     0.281727 a.u.     7.666 eV
  27( 0) :     0.282574 a.u.     7.689 eV
  28( 0) :     0.287996 a.u.     7.837 eV
  29( 0) :     0.292133 a.u.     7.949 eV
  30( 0) :     0.321855 a.u.     8.758 eV
  31( 0) :     0.334357 a.u.     9.098 eV
  32( 0) :     0.345038 a.u.     9.389 eV
  33( 0) :     0.359152 a.u.     9.773 eV
  34( 0) :     0.377784 a.u.    10.280 eV
  35( 0) :     0.379502 a.u.    10.327 eV
  36( 0) :     0.384329 a.u.    10.458 eV
  37( 0) :     0.465485 a.u.    12.667 eV
  38( 0) :     0.484095 a.u.    13.173 eV
  39( 0) :     0.493580 a.u.    13.431 eV
  40( 0) :     0.520074 a.u.    14.152 eV
  41( 0) :     0.545127 a.u.    14.834 eV
  42( 0) :     0.570559 a.u.    15.526 eV
  43( 0) :     0.585798 a.u.    15.940 eV
  44( 0) :     0.620082 a.u.    16.873 eV
  45( 0) :     0.652443 a.u.    17.754 eV
  46( 0) :     0.667640 a.u.    18.167 eV
  47( 0) :     0.669049 a.u.    18.206 eV
  48( 0) :     0.680859 a.u.    18.527 eV
  49( 0) :     0.686198 a.u.    18.672 eV
  50( 0) :     0.719271 a.u.    19.572 eV
  51( 0) :     0.755442 a.u.    20.557 eV
  52( 0) :     0.773921 a.u.    21.059 eV
  53( 0) :     0.800573 a.u.    21.785 eV
  54( 0) :     0.840907 a.u.    22.882 eV
  55( 0) :     0.892760 a.u.    24.293 eV
  56( 0) :     0.898833 a.u.    24.458 eV
  57( 0) :     0.914248 a.u.    24.878 eV
  58( 0) :     0.925201 a.u.    25.176 eV
  59( 0) :     0.956020 a.u.    26.015 eV
  60( 0) :     0.970630 a.u.    26.412 eV
  61( 0) :     1.052176 a.u.    28.631 eV
  62( 0) :     1.080753 a.u.    29.409 eV
  63( 0) :     1.090212 a.u.    29.666 eV
  64( 0) :     1.122355 a.u.    30.541 eV
  65( 0) :     1.168967 a.u.    31.809 eV
  66( 0) :     1.176280 a.u.    32.008 eV
  67( 0) :     1.229310 a.u.    33.451 eV
  68( 0) :     1.257466 a.u.    34.217 eV
  69( 0) :     1.286057 a.u.    34.995 eV
  70( 0) :     1.314724 a.u.    35.775 eV
  71( 0) :     1.336062 a.u.    36.356 eV
  72( 0) :     1.370316 a.u.    37.288 eV
  73( 0) :     1.424429 a.u.    38.761 eV
  74( 0) :     1.426643 a.u.    38.821 eV
  75( 0) :     1.474665 a.u.    40.128 eV
  76( 0) :     1.504745 a.u.    40.946 eV
  77( 0) :     1.514116 a.u.    41.201 eV
  78( 0) :     1.570539 a.u.    42.737 eV
  79( 0) :     1.639184 a.u.    44.604 eV
  80( 0) :     1.641668 a.u.    44.672 eV
  81( 0) :     1.730404 a.u.    47.087 eV
  82( 0) :     1.811561 a.u.    49.295 eV
  83( 0) :     1.869645 a.u.    50.876 eV
  84( 0) :     1.896548 a.u.    51.608 eV
  85( 0) :     1.915633 a.u.    52.127 eV
  86( 0) :     1.962611 a.u.    53.405 eV
  87( 0) :     1.972040 a.u.    53.662 eV
  88( 0) :     2.024338 a.u.    55.085 eV
  89( 0) :     2.057754 a.u.    55.994 eV
  90( 0) :     2.069287 a.u.    56.308 eV
  91( 0) :     2.072285 a.u.    56.390 eV
  92( 0) :     2.105538 a.u.    57.295 eV
  93( 0) :     2.106113 a.u.    57.310 eV
  94( 0) :     2.150285 a.u.    58.512 eV
  95( 0) :     2.193873 a.u.    59.698 eV
  96( 0) :     2.206734 a.u.    60.048 eV
  97( 0) :     2.256438 a.u.    61.401 eV
  98( 0) :     2.278027 a.u.    61.988 eV
  99( 0) :     2.345155 a.u.    63.815 eV
 100( 0) :     2.352343 a.u.    64.011 eV
 101( 0) :     2.404350 a.u.    65.426 eV
 102( 0) :     2.446705 a.u.    66.578 eV
 103( 0) :     2.449276 a.u.    66.648 eV
 104( 0) :     2.486265 a.u.    67.655 eV
 105( 0) :     2.492466 a.u.    67.823 eV
 106( 0) :     2.519827 a.u.    68.568 eV
 107( 0) :     2.541487 a.u.    69.157 eV
 108( 0) :     2.582380 a.u.    70.270 eV
 109( 0) :     2.610619 a.u.    71.039 eV
 110( 0) :     2.678282 a.u.    72.880 eV
 111( 0) :     2.741269 a.u.    74.594 eV
 112( 0) :     2.749068 a.u.    74.806 eV
 113( 0) :     2.769130 a.u.    75.352 eV
 114( 0) :     2.793215 a.u.    76.007 eV
 115( 0) :     2.832707 a.u.    77.082 eV
 116( 0) :     2.866714 a.u.    78.007 eV
 117( 0) :     2.871988 a.u.    78.151 eV
 118( 0) :     2.911934 a.u.    79.238 eV
 119( 0) :     2.992802 a.u.    81.438 eV
 120( 0) :     3.005512 a.u.    81.784 eV
 121( 0) :     3.053779 a.u.    83.098 eV
 122( 0) :     3.087308 a.u.    84.010 eV
 123( 0) :     3.146257 a.u.    85.614 eV
 124( 0) :     3.164044 a.u.    86.098 eV
 125( 0) :     3.204929 a.u.    87.211 eV
 126( 0) :     3.251648 a.u.    88.482 eV
 127( 0) :     3.261165 a.u.    88.741 eV
 128( 0) :     3.285579 a.u.    89.405 eV
 129( 0) :     3.326328 a.u.    90.514 eV
 130( 0) :     3.345113 a.u.    91.025 eV
 131( 0) :     3.400944 a.u.    92.544 eV
 132( 0) :     3.401279 a.u.    92.554 eV
 133( 0) :     3.448785 a.u.    93.846 eV
 134( 0) :     3.451668 a.u.    93.925 eV
 135( 0) :     3.492038 a.u.    95.023 eV
 136( 0) :     3.522247 a.u.    95.845 eV
 137( 0) :     3.536929 a.u.    96.245 eV
 138( 0) :     3.554886 a.u.    96.733 eV
 139( 0) :     3.563126 a.u.    96.958 eV
 140( 0) :     3.583992 a.u.    97.525 eV
 141( 0) :     3.652059 a.u.    99.378 eV
 142( 0) :     3.670903 a.u.    99.890 eV
 143( 0) :     3.682913 a.u.   100.217 eV
 144( 0) :     3.688946 a.u.   100.381 eV
 145( 0) :     3.767598 a.u.   102.522 eV
 146( 0) :     3.813005 a.u.   103.757 eV
 147( 0) :     3.816895 a.u.   103.863 eV
 148( 0) :     3.869437 a.u.   105.293 eV
 149( 0) :     3.913016 a.u.   106.479 eV
 150( 0) :     3.918856 a.u.   106.637 eV
 151( 0) :     3.961500 a.u.   107.798 eV
 152( 0) :     3.989708 a.u.   108.565 eV
 153( 0) :     4.073493 a.u.   110.845 eV
 154( 0) :     4.088505 a.u.   111.254 eV
 155( 0) :     4.111119 a.u.   111.869 eV
 156( 0) :     4.118836 a.u.   112.079 eV
 157( 0) :     4.171791 a.u.   113.520 eV
 158( 0) :     4.193420 a.u.   114.109 eV
 159( 0) :     4.260819 a.u.   115.943 eV
 160( 0) :     4.310209 a.u.   117.287 eV
 161( 0) :     4.394666 a.u.   119.585 eV
 162( 0) :     4.404049 a.u.   119.840 eV
 163( 0) :     4.480140 a.u.   121.911 eV
 164( 0) :     4.519409 a.u.   122.979 eV
 165( 0) :     4.592031 a.u.   124.956 eV
 166( 0) :     4.594079 a.u.   125.011 eV
 167( 0) :     4.614249 a.u.   125.560 eV
 168( 0) :     4.667906 a.u.   127.020 eV
 169( 0) :     4.717032 a.u.   128.357 eV
 170( 0) :     4.789687 a.u.   130.334 eV
 171( 0) :     4.951874 a.u.   134.747 eV
 172( 0) :     4.980925 a.u.   135.538 eV
 173( 0) :     5.090270 a.u.   138.513 eV
 174( 0) :     5.113533 a.u.   139.146 eV
 175( 0) :     5.190186 a.u.   141.232 eV
 176( 0) :     5.252567 a.u.   142.930 eV
 177( 0) :     5.391250 a.u.   146.703 eV
 178( 0) :     5.969989 a.u.   162.452 eV
 179( 0) :     6.013549 a.u.   163.637 eV
 180( 0) :     6.300452 a.u.   171.444 eV
 181( 0) :     6.312774 a.u.   171.779 eV
 182( 0) :     6.356430 a.u.   172.967 eV
 183( 0) :     6.576989 a.u.   178.969 eV
 184( 0) :     6.741471 a.u.   183.445 eV
 185( 0) :     7.370529 a.u.   200.562 eV
 186( 0) :     7.426628 a.u.   202.089 eV
 187( 0) :     7.502115 a.u.   204.143 eV
 188( 0) :     7.763705 a.u.   211.261 eV
 189( 0) :     7.850895 a.u.   213.634 eV
 190( 0) :     8.214729 a.u.   223.534 eV
 191( 0) :     8.547559 a.u.   232.591 eV
 192( 0) :     8.766992 a.u.   238.562 eV
 193( 0) :     8.866567 a.u.   241.272 eV
 194( 0) :    15.825425 a.u.   430.632 eV
 195( 0) :    40.276706 a.u.  1095.985 eV
 196( 0) :    40.595524 a.u.  1104.660 eV
 197( 0) :    40.690399 a.u.  1107.242 eV
 198( 0) :    40.883850 a.u.  1112.506 eV
 199( 0) :    79.512028 a.u.  2163.632 eV
-------
TIMINGS
-------

Total SCF time: 0 days 0 hours 0 min 0 sec 

Total time                  ....       0.584 sec
Sum of individual times     ....       0.929 sec  (159.2%)

Fock matrix formation       ....       0.378 sec  ( 64.8%)
Diagonalization             ....       0.000 sec  (  0.0%)
Density matrix formation    ....       0.001 sec  (  0.2%)
Population analysis         ....       0.439 sec  ( 75.2%)
Initial guess               ....       0.109 sec  ( 18.7%)
Orbital Transformation      ....       0.000 sec  (  0.0%)
Orbital Orthonormalization  ....       0.012 sec  (  2.0%)
DIIS solution               ....       0.002 sec  (  0.4%)


           ************************************************************
           *        Program running with 20 parallel MPI-processes    *
           *              working on a common directory               *
           ************************************************************


------------------------------------------------------------------------------- 
                              ORCA-MATRIX DRIVEN CI                            
------------------------------------------------------------------------------- 


Wavefunction type
-----------------
Correlation treatment                      ...      CCSD     
Single excitations                         ... ON
Orbital optimization                       ... OFF
Calculation of Z vector                    ... OFF
Calculation of Brueckner orbitals          ... OFF
Perturbative triple excitations            ... ON
Calculation of F12 correction              ... OFF
Frozen core treatment                      ... chemical core (10 el)
Reference Wavefunction                     ... UHF
  Alpha-MOs occ    :     5 ...   19 ( 15 MO's/ 15 electrons)
  Beta-MOs occ     :     5 ...   19 ( 15 MO's/ 15 electrons)
  Alpha-MOs virt   :    20 ...  199 (180 MO's              )
  Beta-MOs virt    :    20 ...  199 (180 MO's              )
  Quasi restricted orbitals will be used (this is similar to a ROHF determinant)
Number of AO's                             ...    200
Number of electrons                        ...     40
Number of correlated electrons             ...     30

Algorithmic settings
--------------------
Integral transformation                    ... All integrals via the RI transformation
RHF integral transformation will be used
K(C) Formation                             ... RI-DLPNO
   PNO-Integral Storage                    ... ON DISK
   PNO occupation number cut-off           ... 3.330e-07
   Singles PNO occupation number cut-off   ... 9.990e-09
   PNO Mulliken prescreening cut-off       ... 1.000e-03
   Domain cut-off (Mulliken population)    ... 1.000e-03
   PNO Normalization                       ...    1
Maximum number of iterations               ...        50
Convergence tolerance (max. residuum)      ... 2.500e-05
Level shift for amplitude update           ... 2.000e-01
Maximum number of DIIS vectors             ...         7
DIIS turned on at iteration                ...         0
Damping before turning on DIIS             ...     0.500
Damping after turning on DIIS              ...     0.000
Pair specific amplitude update             ... OFF
Natural orbital iterations                 ... OFF
Perturbative natural orbital generation    ... OFF
Printlevel                                 ... 2

Singles Fock matrix elements calculated using PNOs.

Memory handling:
----------------
Maximum memory for working arrays          ...  14000 MB
Data storage in matrix containers          ... UNCOMPRESSED
Data type for integral storage             ... DOUBLE
In-Core Storage of quantities:
   Amplitudes+Sigma Vector      ... NO
   J+K operators                ... NO
   DIIS vectors                 ... NO
   3-external integrals         ... NO
   4-external integrals         ... NO

Localization treatment:
-----------------------
Localization option                        ...    6
Localization threshhold                    ... -1.0e+00
Using relative localization threshhold     ... 1.0e-08
Neglect threshold for strong pairs         ... 1.000e-04 Eh
Prescreening threshold for very weak pairs ... 1.000e-06 Eh

Initializing the integral package          ... done
Localizing the QROs
------------------------------------------------------------------------------
                           ORCA ORBITAL LOCALIZATION
------------------------------------------------------------------------------

Input orbitals are from                  ... A-free-THF.qro
Output orbitals are to                   ... A-free-THF.loc
Max. number of iterations                ... 128
Localizations seeded randomly            ... off
Convergence tolerance                    ... 1.000e-06
Using relative localization threshhold   ... 1.000e-08
Treshold for strong local MOs            ... 9.500e-01
Treshold for bond MOs                    ... 8.500e-01
Operator                                 ... 0
Orbital range for localization           ... 5 to 19
Localization criterion                   ... FOSTER-BOYS (AUGMENTED HESSIAN)
Doing the dipole integrals     ... o.k.
Initial value of the localization sum :   117.326359
ITERATION   0 : L=  124.1865131232 DL=  6.86e+00 (AVERGE_DL)=    0.2556067250 
ITERATION   1 : L=  124.4181247801 DL=  2.32e-01 (AVERGE_DL)=    0.0469662145 
ITERATION   2 : L=  124.5188138250 DL=  1.01e-01 (AVERGE_DL)=    0.0309668094 
ITERATION   3 : L=  124.5550143377 DL=  3.62e-02 (AVERGE_DL)=    0.0185678967 
ITERATION   4 : L=  124.5632210187 DL=  8.21e-03 (AVERGE_DL)=    0.0088407504 
ITERATION   5 : L=  124.5650929153 DL=  1.87e-03 (AVERGE_DL)=    0.0042222727 
ITERATION   6 : L=  124.5654964482 DL=  4.04e-04 (AVERGE_DL)=    0.0019604006 
ITERATION   7 : L=  124.5655826904 DL=  8.62e-05 (AVERGE_DL)=    0.0009062856 
ITERATION   8 : L=  124.5656010144 DL=  1.83e-05 (AVERGE_DL)=    0.0004177499 
ITERATION   9 : L=  124.5656049024 DL=  3.89e-06 (AVERGE_DL)=    0.0001924282 
ITERATION  10 : L=  124.5656057265 DL=  8.24e-07 (AVERGE_DL)=    0.0000885913 
LOCALIZATION SUM CONVERGED

------------------------------------------------------
AUGMENTED HESSIAN OPTIMIZATION OF FOSTER-BOYS ORBITALS
------------------------------------------------------

Spin operator:           0
Orbital window:          5 to 19
Number of iterations:    128
Gradient tolerance:      1.000e-06
Number of pairs:         105
Davidson threshold:      2000
Diagonalization method:  LAPACK
Iter:    0   L: 124.5656057265   Grad. norm: 1.075856e-03
   *** Likely close to a maximum now. ***
       Augmented Hessian eigenvalues:  4.48e-07 -7.69e-01 -2.56e+00 -4.10e+00 ... 
Iter:    1   L: 124.5656059507   Grad. norm: 3.463955e-07
LOCALIZATION HAS CONVERGED.

Eigenvalues of the Hessian:
  0 -7.688e-01
  1 -2.558e+00
  2 -4.097e+00
  3 -4.530e+00
  4 -6.491e+00
  5 -8.793e+00
  6 -1.764e+01
  7 -1.777e+01
  8 -1.791e+01
  9 -1.799e+01
    ...


------------------------------------------------------------------------------- 
                    LOCALIZED MOLECULAR ORBITAL COMPOSITIONS                   
------------------------------------------------------------------------------- 

The Mulliken populations for each LMO on each atom are computed
The LMO`s will be ordered according to atom index and type
  (A) Strongly localized MO`s have populations of >=0.950 on one atom
  (B) Two center bond orbitals have populations of >=0.850 on two atoms
  (C) Other MO`s are considered to be `delocalized`

FOUND  -   2 strongly local MO`s
       -  13 two center bond MO`s
       -   0 significantly delocalized MO`s

Rather strongly localized orbitals:
MO   6:   1O  -   0.976350
MO   5:   1O  -   0.961319
[...]
 Sum of total truncation errors ...   0.0018731919 Eh
  | Pair screening ...   0.0000000000 Eh
  | PNO truncation ...   0.0018731919 Eh

 UMP2 correlation energy (PAO) ...  -0.8725337875
  | alpha-alpha ...  -0.1024985099 (NP_aa=  105)
  | alpha-beta  ...  -0.6675367677 (NP_ab=  225)
  | beta -beta  ...  -0.1024985099 (NP_bb=  105)
 UMP2 correlation energy (PNO) ...  -0.8706605955
  | alpha-alpha ...  -0.1022300077 (err=  0.0002685021, NP_aa=  105)
  | alpha-beta  ...  -0.6662005801 (err=  0.0013361876, NP_ab=  225)
  | beta -beta  ...  -0.1022300077 (err=  0.0002685021, NP_bb=  105)
 Sum of total UMP2 truncation errors ...   0.0018731919 Eh
  | Pair screening ...   0.0000000000 Eh
  | PNO truncation ...   0.0018731919 Eh
 Timing for NEV-PNO construction (sec.)
  | Intermediate construction  ..            0.000
  | Amplitude construction     ..            0.008
  | Total time                 ..            0.008
 Making pair pair interaction lists ...      ok
                                                 
  ___         ___     __        ___  __   __     
 |__  | |\ | |__     / _` |  | |__  /__` /__`   
 |    | | \| |___    \__> \__/ |___ .__/ .__/ 
                                                 

Thresholds for map construction and integral transformation:
   TCutMKN   ...     1.0e-03
   TCutDO    ...     1.0e-02
   TCutCMO   ...     1.0e-03
   TCutCPAO  ...     1.0e-03

Thresholds for map construction and integral transformation for strong Triples:
   TCutMKN   ...     1.0e-02
   TCutDO    ...     2.0e-02
   TCutCMO   ...     1.0e-03
   TCutCPAO  ...     1.0e-03

Thresholds for map construction and integral transformation for weak Triples:
   TCutMKN   ...     1.0e-01
   TCutDO    ...     4.0e-02
   TCutCMO   ...     1.0e-03
   TCutCPAO  ...     1.0e-03

--------------------------------
LOCAL RI TRANSFORMATION (IAVPAO)
--------------------------------

Orbital window:       5 to 19
Number of PAOs:     200
Basis functions:    200 (84 shells)
Aux. functions:    1115 (351 shells)

Processing maps (0.0 sec)
Average map sizes:
   Aux shells -> MOs              15.0
   Aux shells -> PAOs            200.0
   MOs        -> AO shells        83.8
   PAOs       -> AO shells        84.0

Calculating integrals (0.2 sec, 25.533 MB)
Sorting integrals (0.1 sec, 25.520 MB)
Total time for the integral transformation: 0.3 sec

 ==> UMP guess in NEV-PNO space 

Truncation parameters                       .... 
    PAOOverlapThresh     =        1.000e-08
Pair selection                          .... not used
    TCutPairs            =        1.000e-04
    TCutMKN              =        1.000e-03
    TCutDO               =        1.000e-02
    TCutCMO              =        1.000e-03
    TCutCPAO             =        1.000e-03
    TCutPNO              =        3.330e-07
    TScaleTCutPNO_SS     =        1.000e+00
    TScaleTCutPNO_SD     =        1.000e+00
    TScalePNO_Core       =        1.000e-02
    TScaleTCutPairs_Somo =        3.300e-01
    TScaleTCutPairs_Core =        1.000e+00
    TCutPairs_MP2        =        1.000e-05
    TCutCMO              =        1.000e-03
    TCutCPAO             =        1.000e-03
Spin component scaling in ijab excitation            .... not used

Formation of guess energy and open-shell PNO.

NEV-PNO operators..
  E(ij->ab)

   .... Finished loop over pairs

 PNO Occupation Number Statistics: 
  | Av. % of trace(Dij) retained        ...  99.333175844049
  | sigma^2 in % of trace(Dij) retained ...   5.97e-01
  | Av. % of trace(Di) retained         ...  99.999188744859
  | sigma^2 in % of trace(Di) retained  ...   4.27e-08
 Distributions of % trace(Dij) recovered:
  |       >= 99.9  ...    43 ( 35.8 % of all IJ-pairs)
  |   [90.0, 99.0) ...    31 ( 25.8 % of all IJ-pairs)
  |   [99.0, 99.9) ...    46 ( 38.3 % of all IJ-pairs)
 Distributions of % trace(Di) recovered :
  |       >= 99.9  ...    15 (100.0 % of all I-pairs )

                       ===========================
                        225 OF  225 PAIRS ARE KEPT
                       ===========================

 Initial PAO correlation energy (all pairs)    ...  -0.8727739744 Eh
 Energy constituents in PAO basis (Eh):
  | Vijab(+0) ...  -0.8727739744
 Initial PNO correlation energy                ...  -0.8708960540 Eh
 Energy constituents in PNO basis (Eh):
  | Vijab(+0) ...  -0.8708960540 (err=  0.0018779205)
 Sum of total truncation errors ...   0.0018779205 Eh
  | Pair screening ...   0.0000000000 Eh
  | PNO truncation ...   0.0018779205 Eh

 UMP2 correlation energy (PAO) ...  -0.8727739744
  | alpha-alpha ...  -0.1024870842 (NP_aa=  105)
  | alpha-beta  ...  -0.6677998061 (NP_ab=  225)
  | beta -beta  ...  -0.1024870842 (NP_bb=  105)
 UMP2 correlation energy (PNO) ...  -0.8708960540
  | alpha-alpha ...  -0.1022219089 (err=  0.0002651753, NP_aa=  105)
  | alpha-beta  ...  -0.6664522362 (err=  0.0013475699, NP_ab=  225)
  | beta -beta  ...  -0.1022219089 (err=  0.0002651753, NP_bb=  105)
 Sum of total UMP2 truncation errors ...   0.0018779205 Eh
  | Pair screening ...   0.0000000000 Eh
  | PNO truncation ...   0.0018779205 Eh
 Timing for NEV-PNO construction (sec.)
  | Intermediate construction  ..            0.000
  | Amplitude construction     ..            0.009
  | Total time                 ..            0.009
 Making pair pair interaction lists ...      ok
 Total size for 2-ext PNO integrals ...      1.9 MB
--------------------------------
LOCAL RI TRANSFORMATION (VABPAO)
--------------------------------

Number of PAOs:     200
Basis functions:    200 (84 shells)
Aux. functions:    1115 (351 shells)

Processing maps (0.0 sec)
Average map sizes:
   Aux shells -> PAOs            200.0
   PAOs       -> AO shells        84.0

Calculating integrals (0.7 sec, 662.867 MB)
Finished
-----------------------------
LOCAL RI TRANSFORMATION (IJV)
-----------------------------

Orbital window:       5 to 19
Basis functions:    200 (84 shells)
Aux. functions:    1115 (351 shells)

Processing maps (0.0 sec)
Average map sizes:
   Aux shells -> MOs(i)           15.0
   Aux shells -> MOs(j)           15.0
   MOs        -> AO shells        83.8

Calculating integrals (0.2 sec, 1.927 MB)
Sorting integrals (0.0 sec, 1.914 MB)
Total time for the integral transformation: 0.2 sec


-------------------------------------
Pair Pair Term precalculation with     
RI-(ij|mn) and (im|jn) transformation  
ON THE FLY                             
-------------------------------------

   IBatch   1 (of   1)              ... done (    5.935 sec)
Total EXT                           ...           5.935 sec

---------------------
RI-PNO TRANSFORMATION
---------------------

Total Number of PNOs                   ...  7119
Total Number of IJ-PNOs                ...  7119
Total Number of IP-PNOs                ...     0
Total Number of PQ-PNOs                ...     0
Total Number of IJ-pairs               ...   225
Total Number of PI-pairs               ...     0
Total Number of PQ-pairs               ...     0
Average number of PNOs per pair        ...    31
Maximal number of PNOs per pair        ...    50
>> Statistics for ij-pairs..
   #pairs with  1 -  5 PNOs   :    0
   #pairs with  6 - 10 PNOs   :    0
   #pairs with 11 - 15 PNOs   :   20
   #pairs with 16 - 20 PNOs   :   14
   #pairs with 21 - 25 PNOs   :   30
   #pairs with 26 - 30 PNOs   :   36
   #pairs with 31 - 35 PNOs   :   50
   #pairs with 36 - 40 PNOs   :   21
   #pairs with 41 - 45 PNOs   :   45
   #pairs with 46 - 50 PNOs   :    9
Generation of (ij|ab)[P] integrals            ... on
Generation of (ia|bc)[P],(ja|bc)[P] integrals ... on
Storage of 3 and 4 external integrals         ... on
Generation of ALL (ka|bc)[P] integrals        ... on
Keep RI integrals in memory                   ... off

Ibatch:  1 (of  1)
Starting 2-4 index PNO integral generation ... done

Timings:
Total PNO integral transformation time     ...          4.428 sec
Size of the 3-external file                ...        39 MB
Size of the 4-external file                ...       200 MB
Size of the IKJL file                      ...         0 MB
Size of the all 3-external file            ...       298 MB
Size of the 1-external file                ...         1 MB

Size of the PAO/PNO coefficient matrices   ...      10.8 MB

Making pair/pair overlap matrices          ... done (    0.310 sec)
Size of the pair overlap file              ...      89.0 MB
Total # unrestricted pairs ...        435
  # of alpha-alpha pairs   ...        105
  # of alpha-beta pairs    ...        225
  # of beta-beta pairs     ...        105
Constructing the guess amplitudes          ... done (    0.133 sec)

-------------------------
FINAL STARTUP INFORMATION
-------------------------

E(0)                                       ...   -231.106887274
E(SL-UMP2 in NEV-PNO space)                ...     -0.872773974
Initial E(tot)                             ...   -231.979661249
<T|T>                                      ...      0.233844086
Number of unrestricted pairs included      ... 435
Total number of pairs                      ... 435
----------------------------------------------------------
                     OPEN-SHELL COUPLED CLUSTER ITERATIONS
----------------------------------------------------------

Number of PNO amplitudes to be optimized        ...           474317
Number of canonical amplitudes for strong pairs ...         14099400
Untruncated number of canonical amplitudes      ...         14099400

Iter       E(tot)           E(Corr)          Delta-E          Residual     Time
  0   -232.034353474     -0.925588279     -0.052814305      0.024259182    2.91
                           *** Turning on DIIS ***
  1   -232.072352714     -0.963587520     -0.037999241      0.009289121    2.92
  2   -232.099489095     -0.990723900     -0.027136381      0.005321341    2.92
  3   -232.106694653     -0.997929458     -0.007205558      0.002090178    2.90
  4   -232.108428315     -0.999663121     -0.001733663      0.000885305    2.91
  5   -232.108733877     -0.999968682     -0.000305562      0.000202252    2.91
  6   -232.108794916     -1.000029721     -0.000061039      0.000075370    2.92
  7   -232.108801896     -1.000036701     -0.000006980      0.000031910    2.92
  8   -232.108801337     -1.000036142      0.000000559      0.000013133    2.90
               --- The CCSD iterations have converged ---

E(0)                                       ...   -231.106887274
E(CORR)(strong-pairs)                      ...     -1.000036142
E(CORR)(weak-pairs)                        ...     -0.001877920
E(CORR)(corrected)                         ...     -1.001914062
E(TOT)                                     ...   -232.108801337
Singles norm <S|S>**1/2                    ...      0.185137463 ( 0.092568732, 0.092568732)  
T1 diagnostic                              ...      0.033801322                              
<S**2>(linearized)                         ...      0.0000000 (ideal value:      0.0000000)

----------------------
LARGEST PNO AMPLITUDES
----------------------
   8a-> 20a  -1a-> -1a       0.050152
   8b-> 20b  -1b-> -1b       0.050152
   7b-> 20b  -1b-> -1b       0.050144
   7a-> 20a  -1a-> -1a       0.050144
   8a-> 20a   8b-> 20b       0.048590
   7a-> 20a   7b-> 20b       0.048573
  13a-> 20a  13b-> 20b       0.042453
  14a-> 20a  14b-> 20b       0.042439
  12a-> 20a  12b-> 20b       0.041867
  15a-> 20a  15b-> 20b       0.041864
  16a-> 20a  16b-> 20b       0.041580
  18a-> 20a  18b-> 20b       0.041576
  19a-> 20a  19b-> 20b       0.040512
  17a-> 20a  17b-> 20b       0.040506
   7b-> 21b  -1b-> -1b       0.040044
   7a-> 21a  -1a-> -1a       0.040044

Total # unrestricted pairs ...          0
  # of alpha-alpha pairs   ...          0
  # of alpha-beta pairs    ...          0
  # of beta-beta pairs     ...          0

-------------------------------------------
DLPNO BASED TRIPLES CORRECTION
-------------------------------------------

Singles multiplier          ...  1.000000
Fragment selection                          .... not used
TCutTNO                     ... 1.000e-09
TCutMP2Pairs                ... 1.000e-05
TCutDOStrong                ... 2.000e-02
TCutMKNStrong               ... 1.000e-02
TCutDOWeak                  ... 4.000e-02
TCutMKNWeak                 ... 1.000e-01
NTCutTNO                    ... 1

Number of Triples that are to be computed         ...      3360

 . . . . . . . . .
10% done  
20% done  
30% done  
40% done  
50% done  
60% done  
70% done  
80% done  
90% done  
          Batch   1   done (     20.416 sec)

Triples-Correction TCutTNO=   1.000e-09 (NWeakPairs = 0  1  2  3)  -0.033732191498    0.000000000000    0.000000000000    0.000000000000
Triples-Correction  -0.033732191498

Triples timings:
Total time                      ...    22.213 sec

Triples List generation         ...     0.000 sec
TNO generation                  ...     0.379 sec
Pair density generation         ...     0.010 sec
Look up tables                  ...     0.002 sec
Generating 3-index integrals    ...    10.399 sec
Make 4-ind.int. from 3-ind.int  ...     0.056 sec
Projecting amplitudes (D + S)   ...     2.057 sec
Sorting integrals for spin cases...     1.507 sec
Calculate W0/W1                 ...     4.068 sec
T0 Energy contr.(sum over a,b,c)...     2.328 sec

Everything after 3-index in T0  ...    13.066 sec

Energy contribution AAA         ...     0.723 sec
Energy contribution AAB         ...     3.486 sec
Energy contribution ABB         ...     3.322 sec
Energy contribution BBB         ...     0.374 sec
prep                ...     0.038 sec
makeTTNO            ...     1.891 sec
copyij              ...     0.003 sec
copyil              ...     0.046 sec
transposeij         ...     0.002 sec
newMatInDoubleProj  ...     0.072 sec
BlasInDoubleProj    ...     1.006 sec
ProjSingles         ...     0.056 sec
ProjDoubles         ...     2.000 sec
overall Doubles for projection      ... 100380
used Doubles for projection         ... 100380


Number of Triples   (0, 1, 2, 3 weak pairs; overall):   2695       0       0       0  (  2695)
Number of Atoms     (0, 1, 2, 3 weak pairs; overall):   11.9     0.0     0.0     0.0  (    13)
Number of PAOs      (0, 1, 2, 3 weak pairs; overall):  194.3     0.0     0.0     0.0  (   200)
Number of AuxFcns   (0, 1, 2, 3 weak pairs; overall):  917.2     0.0     0.0     0.0  (  1115)
Number of TNOs (0, 1, 2, 3 weak pairs         ):   81.2     0.0     0.0     0.0
Aver. Number of NTNO, Atoms, PAOs, AuxFcns / Triples:   2695    81.2    11.9   194.3   917.2

Triples Correction (T)                     ...     -0.033732191
    alpha-alpha-alpha ... -0.000903457 (  2.7%)
    alpha-alpha-beta  ... -0.015962639 ( 47.3%)
    alpha-beta -beta  ... -0.015962639 ( 47.3%)
    beta -beta -beta  ... -0.000903457 (  2.7%)
Final correlation energy                   ...     -1.035646254
E(CCSD)                                    ...   -232.108801337
E(CCSD(T))                                 ...   -232.142533528

----------------------------
STATISTICS FOR PAIR-ENERGIES
----------------------------
Minimum, maximum and average ratios of UMP and CCSD pair-energies ... 0.75, 1.19, 0.98


------------------------------------------------------------------------------- 
                                     TIMINGS                                   
------------------------------------------------------------------------------- 


Total execution time                   ...       70.653 sec

Localization of occupied MO's          ...        0.446 sec (  0.6%)
Fock Matrix Formation                  ...        0.913 sec (  1.3%)
Differential overlap integrals         ...        1.636 sec (  2.3%)
Organizing maps                        ...        0.024 sec (  0.0%)
RI 3-index integral generations        ...        1.489 sec (  2.1%)
RI-PNO integral transformation         ...       12.972 sec ( 18.4%)
Initial Guess                          ...        3.923 sec (  5.6%)
DIIS Solver                            ...        0.397 sec (  0.6%)
State Vector Update                    ...        0.027 sec (  0.0%)
Sigma-vector construction              ...       26.198 sec ( 37.1%)
  <D|H|D>(0-ext)                       ...        0.648 sec (  2.5% of sigma)
  <D|H|D>(2-ext Fock)                  ...        0.005 sec (  0.0% of sigma)
  <D|H|D>(2-ext)                       ...        7.004 sec ( 26.7% of sigma)
  <D|H|D>(4-ext)                       ...        2.928 sec ( 11.2% of sigma)
  <D|H|D>(4-ext-corr)                  ...        9.178 sec ( 35.0% of sigma)
  CCSD doubles correction              ...        0.161 sec (  0.6% of sigma)
  <S|H|S>                              ...        0.257 sec (  1.0% of sigma)
  <S|H|D>(1-ext)                       ...        0.103 sec (  0.4% of sigma)
  <D|H|S>(1-ext)                       ...        0.006 sec (  0.0% of sigma)
  <S|H|D>(3-ext)                       ...        0.093 sec (  0.4% of sigma)
  Fock-dressing                        ...        3.409 sec ( 13.0% of sigma)
  Singles amplitudes                   ...        0.162 sec (  0.6% of sigma)
  (ik|jl)-dressing                     ...        0.727 sec (  2.8% of sigma)
  (ij|ab),(ia|jb)-dressing             ...        1.144 sec (  4.4% of sigma)
  Pair energies                        ...        0.005 sec (  0.0% of sigma)
Total Time for computing (T)           ...       22.492 sec ( 31.8% of ALL)


-------------------------   --------------------
FINAL SINGLE POINT ENERGY      -232.142533528072
-------------------------   --------------------


                            ***************************************
                            *     ORCA property calculations      *
                            ***************************************

                                    ---------------------
                                    Active property flags
                                    ---------------------
   (+) Dipole Moment


------------------------------------------------------------------------------
                       ORCA ELECTRIC PROPERTIES CALCULATION
------------------------------------------------------------------------------

Dipole Moment Calculation                       ... on
Quadrupole Moment Calculation                   ... off
Polarizability Calculation                      ... off
GBWName                                         ... A-free-THF.gbw
Electron density file                           ... A-free-THF.scfp
The origin for moment calculation is the CENTER OF MASS  = (-0.323754,  0.034477 -0.094771)

-------------
DIPOLE MOMENT
-------------
                                X             Y             Z
Electronic contribution:     -0.97130      -1.65530       0.04081
Nuclear contribution   :      2.04202       2.63531       0.62577
                        -----------------------------------------
Total Dipole Moment    :      1.07072       0.98000       0.66658
                        -----------------------------------------
Magnitude (a.u.)       :      1.59724
Magnitude (Debye)      :      4.05986



--------------------
Rotational spectrum 
--------------------
 
Rotational constants in cm-1:     0.236866     0.229476     0.132412 
Rotational constants in MHz :  7101.052015  6879.527319  3969.612969 

 Dipole components along the rotational axes: 
x,y,z [a.u.] :     1.306930     0.002342     0.918203 
x,y,z [Debye]:     3.321953     0.005952     2.333887 

 

Timings for individual modules:

Sum of individual times         ...       75.697 sec (=   1.262 min)
GTO integral calculation        ...        0.767 sec (=   0.013 min)   1.0 %
Relativistic integrals          ...        0.768 sec (=   0.013 min)   1.0 %
SCF iterations                  ...        0.964 sec (=   0.016 min)   1.3 %
MDCI module                     ...       73.199 sec (=   1.220 min)  96.7 %
                             ****ORCA TERMINATED NORMALLY****
TOTAL RUN TIME: 0 days 0 hours 1 minutes 16 seconds 259 msec
