
                                 *****************
                                 * O   R   C   A *
                                 *****************

                                            #,                                       
                                            ###                                      
                                            ####                                     
                                            #####                                    
                                            ######                                   
                                           ########,                                 
                                     ,,################,,,,,                         
                               ,,#################################,,                 
                          ,,##########################################,,             
                       ,#########################################, ''#####,          
                    ,#############################################,,   '####,        
                  ,##################################################,,,,####,       
                ,###########''''           ''''###############################       
              ,#####''   ,,,,##########,,,,          '''####'''          '####       
            ,##' ,,,,###########################,,,                        '##       
           ' ,,###''''                  '''############,,,                           
         ,,##''                                '''############,,,,        ,,,,,,###''
      ,#''                                            '''#######################'''  
     '                                                          ''''####''''         
             ,#######,   #######,   ,#######,      ##                                
            ,#'     '#,  ##    ##  ,#'     '#,    #''#        ######   ,####,        
            ##       ##  ##   ,#'  ##            #'  '#       #        #'  '#        
            ##       ##  #######   ##           ,######,      #####,   #    #        
            '#,     ,#'  ##    ##  '#,     ,#' ,#      #,         ##   #,  ,#        
             '#######'   ##     ##  '#######'  #'      '#     #####' # '####'        



                  #######################################################
                  #                        -***-                        #
                  #          Department of theory and spectroscopy      #
                  #    Directorship and core code : Frank Neese         #
                  #        Max Planck Institute fuer Kohlenforschung    #
                  #                Kaiser Wilhelm Platz 1               #
                  #                 D-45470 Muelheim/Ruhr               #
                  #                      Germany                        #
                  #                                                     #
                  #                  All rights reserved                #
                  #                        -***-                        #
                  #######################################################


                         Program Version 5.0.3 -  RELEASE  -


 With contributions from (in alphabetic order):
   Daniel Aravena         : Magnetic Suceptibility
   Michael Atanasov       : Ab Initio Ligand Field Theory (pilot matlab implementation)
   Alexander A. Auer      : GIAO ZORA, VPT2 properties, NMR spectrum
   Ute Becker             : Parallelization
   Giovanni Bistoni       : ED, misc. LED, open-shell LED, HFLD
   Martin Brehm           : Molecular dynamics
   Dmytro Bykov           : SCF Hessian
   Vijay G. Chilkuri      : MRCI spin determinant printing, contributions to CSF-ICE
   Dipayan Datta          : RHF DLPNO-CCSD density
   Achintya Kumar Dutta   : EOM-CC, STEOM-CC
   Dmitry Ganyushin       : Spin-Orbit,Spin-Spin,Magnetic field MRCI
   Miquel Garcia          : C-PCM and meta-GGA Hessian, CC/C-PCM, Gaussian charge scheme
   Yang Guo               : DLPNO-NEVPT2, F12-NEVPT2, CIM, IAO-localization
   Andreas Hansen         : Spin unrestricted coupled pair/coupled cluster methods
   Benjamin Helmich-Paris : MC-RPA, TRAH-SCF, COSX integrals
   Lee Huntington         : MR-EOM, pCC
   Robert Izsak           : Overlap fitted RIJCOSX, COSX-SCS-MP3, EOM
   Marcus Kettner         : VPT2
   Christian Kollmar      : KDIIS, OOCD, Brueckner-CCSD(T), CCSD density, CASPT2, CASPT2-K
   Simone Kossmann        : Meta GGA functionals, TD-DFT gradient, OOMP2, MP2 Hessian
   Martin Krupicka        : Initial AUTO-CI
   Lucas Lang             : DCDCAS
   Marvin Lechner         : AUTO-CI (C++ implementation), FIC-MRCC
   Dagmar Lenk            : GEPOL surface, SMD
   Dimitrios Liakos       : Extrapolation schemes; Compound Job, initial MDCI parallelization
   Dimitrios Manganas     : Further ROCIS development; embedding schemes
   Dimitrios Pantazis     : SARC Basis sets
   Anastasios Papadopoulos: AUTO-CI, single reference methods and gradients
   Taras Petrenko         : DFT Hessian,TD-DFT gradient, ASA, ECA, R-Raman, ABS, FL, XAS/XES, NRVS
   Peter Pinski           : DLPNO-MP2, DLPNO-MP2 Gradient
   Christoph Reimann      : Effective Core Potentials
   Marius Retegan         : Local ZFS, SOC
   Christoph Riplinger    : Optimizer, TS searches, QM/MM, DLPNO-CCSD(T), (RO)-DLPNO pert. Triples
   Tobias Risthaus        : Range-separated hybrids, TD-DFT gradient, RPA, STAB
   Michael Roemelt        : Original ROCIS implementation
   Masaaki Saitow         : Open-shell DLPNO-CCSD energy and density
   Barbara Sandhoefer     : DKH picture change effects
   Avijit Sen             : IP-ROCIS
   Kantharuban Sivalingam : CASSCF convergence, NEVPT2, FIC-MRCI
   Bernardo de Souza      : ESD, SOC TD-DFT
   Georgi Stoychev        : AutoAux, RI-MP2 NMR, DLPNO-MP2 response
   Willem Van den Heuvel  : Paramagnetic NMR
   Boris Wezisla          : Elementary symmetry handling
   Frank Wennmohs         : Technical directorship


 We gratefully acknowledge several colleagues who have allowed us to
 interface, adapt or use parts of their codes:
   Stefan Grimme, W. Hujo, H. Kruse, P. Pracht,  : VdW corrections, initial TS optimization,
                  C. Bannwarth, S. Ehlert          DFT functionals, gCP, sTDA/sTD-DF
   Ed Valeev, F. Pavosevic, A. Kumar             : LibInt (2-el integral package), F12 methods
   Garnet Chan, S. Sharma, J. Yang, R. Olivares  : DMRG
   Ulf Ekstrom                                   : XCFun DFT Library
   Mihaly Kallay                                 : mrcc  (arbitrary order and MRCC methods)
   Jiri Pittner, Ondrej Demel                    : Mk-CCSD
   Frank Weinhold                                : gennbo (NPA and NBO analysis)
   Christopher J. Cramer and Donald G. Truhlar   : smd solvation model
   Lars Goerigk                                  : TD-DFT with DH, B97 family of functionals
   V. Asgeirsson, H. Jonsson                     : NEB implementation
   FAccTs GmbH                                   : IRC, NEB, NEB-TS, DLPNO-Multilevel, CI-OPT
                                                   MM, QMMM, 2- and 3-layer-ONIOM, Crystal-QMMM,
                                                   LR-CPCM, SF, NACMEs, symmetry and pop. for TD-DFT,
                                                   nearIR, NL-DFT gradient (VV10), updates on ESD,
                                                   ML-optimized integration grids
   S Lehtola, MJT Oliveira, MAL Marques          : LibXC Library
   Liviu Ungur et al                             : ANISO software


 Your calculation uses the libint2 library for the computation of 2-el integrals
 For citations please refer to: http://libint.valeyev.net

 Your ORCA version has been built with support for libXC version: 5.1.0
 For citations please refer to: https://tddft.org/programs/libxc/

 This ORCA versions uses:
   CBLAS   interface :  Fast vector & matrix operations
   LAPACKE interface :  Fast linear algebra routines
   SCALAPACK package :  Parallel linear algebra routines
   Shared memory     :  Shared parallel matrices
   BLAS/LAPACK       :  OpenBLAS 0.3.15  USE64BITINT DYNAMIC_ARCH NO_AFFINITY Haswell SINGLE_THREADED
        Core in use  :  Haswell
   Copyright (c) 2011-2014, The OpenBLAS Project




***************************************
The coordinates will be read from file: FeIIAcNOOSc-H+_s_P.xyz
***************************************


Your calculation utilizes the atom-pairwise dispersion correction
with the Becke-Johnson damping scheme (D3BJ)
Cite in your paper:
S.Grimme, S.Ehrlich, L.Goerigk, J Comput Chem, (2011), 32, 1456–1465 
S.Grimme, J.Antony, S.Ehrlich and H.Krieg, J.Chem.Phys., 132, (2010), 154104 
   

================================================================================

----- Orbital basis set information -----
Your calculation utilizes the basis: ZORA-def2-TZVP 
   Exponents from def2-TZVP [F. Weigend and R. Ahlrichs, Phys. Chem. Chem. Phys. 7, 3297 (2005)],
   recontracted for ZORA by D. A. Pantazis.

The basis set includes element-specific modifications.

Your calculation utilizes the basis: def2-SVP
   F. Weigend and R. Ahlrichs, Phys. Chem. Chem. Phys. 7, 3297 (2005).

----- AuxJ basis set information -----
Your calculation utilizes the auxiliary basis: SARC/J 
   decontracted def2/J up to Kr:
   F. Weigend, Phys. Chem. Chem. Phys. 8, 1057 (2006)
   and SARC auxiliary basis sets beyond Kr:
   D. A. Pantazis and F. Neese, J. Chem. Theory Comput. 5, 2229 (2009).
   D. A. Pantazis, X. Y. Chen, C. R. Landis and F. Neese, J. Chem. Theory Comput. 4, 908 (2008).
   D. A. Pantazis and F. Neese, Theor. Chem. Acc. 131, 1292 (2012).
   D. A. Pantazis and F. Neese, J. Chem. Theory Comput. 7, 677 (2011).

================================================================================
                                        WARNINGS
                       Please study these warnings very carefully!
================================================================================

WARNING: Gradients needed for Numerical Frequencies
  ===> : Setting RunTyp to EnGrad


WARNING: Found flag for RIJCOSX approximation but no HF exchange needed!
  ===> : RIJCOSX  will be disabled and Split-RI-J is turned on

WARNING: The environment variable RSH_COMMAND is not set!
  ===> : All Displacements for the Numerical Hessian or Gradient calculation
         will be started on localhost

INFO   : the flag for use of the SHARK integral package has been found!

================================================================================
                                       INPUT FILE
================================================================================
NAME = FeIIAcNOOSc-H+_s_P_freq.inp
|  1> ! UKS BP86 D3BJ RIJCOSX zora-def2-tzvp SARC/J
|  2> ! TightSCF cpcm(acetonitrile) 
|  3> ! KDIIS numfreq 
|  4> 
|  5> %maxcore 5000
|  6> %pal nprocs 8 end
|  7> 
|  8> %rel
|  9> onecenter true
| 10> end
| 11> 
| 12> %basis
| 13> newgto C "def2-svp" end
| 14> end
| 15> 
| 16> %method
| 17> intacc 6.0
| 18> end
| 19> 
| 20> %geom
| 21> maxiter 500
| 22> end
| 23> 
| 24> %scf
| 25> maxiter 400
| 26> shift shift 0.1 erroff 0.001 end
| 27> CNVSOSCF true SOSCFstart 0.0000001
| 28> end
| 29> 
| 30> *xyzfile 1 3 FeIIAcNOOSc-H+_s_P.xyz
| 31> 
| 32>                          ****END OF INPUT****
================================================================================

                     *******************************
                     * Energy+Gradient Calculation *
                     *******************************

---------------------------------
CARTESIAN COORDINATES (ANGSTROEM)
---------------------------------
  Fe    18.084233    1.401525    8.419142
  O     19.389668   -0.084280    5.070471
  O     19.017029    1.726978    7.068113
  Sc    19.002556    1.756886    4.924040
  S     16.173154    0.850107    3.308627
  O     16.040052    1.511714    2.021255
  O     17.036763    1.627809    4.271819
  O     16.441619   -0.581583    3.312972
  C     14.502819    1.042400    4.144683
  F     14.108192    2.333782    4.122578
  F     13.585725    0.297023    3.491161
  F     14.559579    0.628865    5.432144
  S     18.115877    5.131915    4.900092
  O     18.987842    5.724947    3.896746
  O     18.604498    3.809889    5.407548
  O     16.680539    5.158828    4.643022
  S     21.072128    2.584119    3.207016
  O     19.661899    2.230007    2.838919
  O     21.168030    2.420099    4.688727
  O     21.617658    3.791947    2.633503
  C     18.359321    6.182389    6.436839
  F     17.604339    5.719091    7.462316
  F     19.655588    6.169646    6.821071
  F     17.995951    7.459150    6.181137
  C     22.116253    1.189457    2.491085
  F     21.689807   -0.006985    2.933889
  F     22.033210    1.219133    1.145837
  F     23.400931    1.366881    2.861005
  C     16.343099    0.764639   10.951683
  N     16.982648    1.005683   10.018176
  C     15.550229    0.458582   12.119601
  H     14.639688    1.079558   12.122113
  H     16.138800    0.668233   13.027810
  H     15.267895   -0.606731   12.103931
  C     15.764821    3.122935    7.414159
  N     16.633316    2.455081    7.781079
  C     14.692862    3.971716    6.954732
  H     13.791857    3.366838    6.768101
  H     15.017336    4.465284    6.022979
  H     14.476539    4.733969    7.720516
  C     16.938835   -1.042470    6.990472
  N     17.334741   -0.138067    7.590964
  C     16.451856   -2.163066    6.223708
  H     15.444826   -2.443580    6.572058
  H     17.136294   -3.018122    6.344020
  H     16.406666   -1.865248    5.161495
  C     20.282755   -0.349483    9.642029
  N     19.451522    0.314307    9.190997
  C     21.324464   -1.180091   10.201676
  H     20.881998   -2.106170   10.603095
  H     21.836680   -0.636193   11.011710
  H     22.052348   -1.434369    9.414014
  C     19.125284    3.902415    9.853037
  N     18.749140    2.941014    9.334364
  C     19.590318    5.106088   10.503145
  H     20.434982    5.527783    9.934905
  H     19.920288    4.868709   11.527430
  H     18.771537    5.842528   10.540658
  H     19.813497   -0.786265    5.587346

----------------------------
CARTESIAN COORDINATES (A.U.)
----------------------------
  NO LB      ZA    FRAG     MASS         X           Y           Z
   0 Fe   26.0000    0    55.850   34.174247    2.648498   15.909873
   1 O     8.0000    0    15.999   36.641163   -0.159266    9.581802
   2 O     8.0000    0    15.999   35.936976    3.263516   13.356798
   3 Sc   21.0000    0    44.960   35.909627    3.320033    9.305088
   4 S    16.0000    0    32.060   30.562832    1.606469    6.252399
   5 O     8.0000    0    15.999   30.311306    2.856725    3.819618
   6 O     8.0000    0    15.999   32.194816    3.076113    8.072569
   7 O     8.0000    0    15.999   31.070156   -1.099032    6.260611
   8 C     6.0000    0    12.011   27.406357    1.969851    7.832317
   9 F     9.0000    0    18.998   26.660619    4.410210    7.790544
  10 F     9.0000    0    18.998   25.673299    0.561291    6.597339
  11 F     9.0000    0    18.998   27.513618    1.188383   10.265264
  12 S    16.0000    0    32.060   34.234047    9.697914    9.259832
  13 O     8.0000    0    15.999   35.881821   10.818582    7.363784
  14 O     8.0000    0    15.999   35.157406    7.199646   10.218786
  15 O     8.0000    0    15.999   31.521651    9.748773    8.774039
  16 S    16.0000    0    32.060   39.820552    4.883277    6.060381
  17 O     8.0000    0    15.999   37.155605    4.214103    5.364779
  18 O     8.0000    0    15.999   40.001780    4.573324    8.860410
  19 O     8.0000    0    15.999   40.851453    7.165742    4.976600
  20 C     6.0000    0    12.011   34.694088   11.683022   12.163864
  21 F     9.0000    0    18.998   33.267379   10.807515   14.101733
  22 F     9.0000    0    18.998   37.143678   11.658942   12.889956
  23 F     9.0000    0    18.998   34.007419   14.095751   11.680657
  24 C     6.0000    0    12.011   41.793661    2.247748    4.707468
  25 F     9.0000    0    18.998   40.987795   -0.013199    5.544247
  26 F     9.0000    0    18.998   41.636732    2.303827    2.165319
  27 F     9.0000    0    18.998   44.221351    2.583031    5.406516
  28 C     6.0000    0    12.011   30.883980    1.444958   20.695682
  29 N     7.0000    0    14.007   32.092554    1.900466   18.931610
  30 C     6.0000    0    12.011   29.385675    0.866593   22.902726
  31 H     1.0000    0     1.008   27.665001    2.040069   22.907473
  32 H     1.0000    0     1.008   30.497912    1.262778   24.618993
  33 H     1.0000    0     1.008   28.852141   -1.146555   22.873115
  34 C     6.0000    0    12.011   29.791194    5.901492   14.010730
  35 N     7.0000    0    14.007   31.432412    4.639430   14.704108
  36 C     6.0000    0    12.011   27.765486    7.505455   13.142539
  37 H     1.0000    0     1.008   26.062833    6.362402   12.789857
  38 H     1.0000    0     1.008   28.378653    8.438163   11.381780
  39 H     1.0000    0     1.008   27.356694    8.945906   14.589661
  40 C     6.0000    0    12.011   32.009759   -1.969982   13.210077
  41 N     7.0000    0    14.007   32.757914   -0.260909   14.344843
  42 C     6.0000    0    12.011   31.089501   -4.087603   11.761103
  43 H     1.0000    0     1.008   29.186492   -4.617696   12.419389
  44 H     1.0000    0     1.008   32.382903   -5.703424   11.988460
  45 H     1.0000    0     1.008   31.004106   -3.524808    9.753812
  46 C     6.0000    0    12.011   38.328853   -0.660427   18.220795
  47 N     7.0000    0    14.007   36.758050    0.593954   17.368467
  48 C     6.0000    0    12.011   40.297397   -2.230049   19.278373
  49 H     1.0000    0     1.008   39.461257   -3.980084   20.036945
  50 H     1.0000    0     1.008   41.265346   -1.202230   20.809116
  51 H     1.0000    0     1.008   41.672898   -2.710565   17.789908
  52 C     6.0000    0    12.011   36.141550    7.374495   18.619542
  53 N     7.0000    0    14.007   35.430740    5.557711   17.639392
  54 C     6.0000    0    12.011   37.020336    9.649108   19.848067
  55 H     1.0000    0     1.008   38.616519   10.445995   18.774249
  56 H     1.0000    0     1.008   37.643889    9.200527   21.783685
  57 H     1.0000    0     1.008   35.473064   11.040778   19.918957
  58 H     1.0000    0     1.008   37.442083   -1.485825   10.558553

--------------------------------
INTERNAL COORDINATES (ANGSTROEM)
--------------------------------
 Fe     0   0   0     0.000000000000     0.00000000     0.00000000
 O      1   0   0     3.889135265233     0.00000000     0.00000000
 O      1   2   0     1.673710715657    36.11706451     0.00000000
 Sc     2   1   3     1.887111159562    67.98914442   323.76386240
 S      4   2   1     3.381911195441    86.96694344   256.69491913
 O      5   4   2     1.453535829131   112.18670215   233.37892753
 O      5   4   2     1.509430736835    22.83577343   137.78716756
 O      5   4   2     1.456649178917    96.19509054   356.84576423
 C      5   4   2     1.877760946737   120.27012474   108.55965680
 F      9   5   4     1.350513877189   110.52164470    77.08293350
 F      9   5   4     1.350459750731   109.39605453   196.79474106
 F      9   5   4     1.353435118949   110.78994470   316.57989286
 S      4   2   1     3.489641247984   175.04584761   340.53726853
 O     13   4   2     1.455579217297   104.27389811   170.17536403
 O     13   4   2     1.498004202773    20.15833469    50.32893417
 O     13   4   2     1.458425540859   105.61212034   294.54383490
 S      4   2   1     2.813471081329   100.56358097   143.09299080
 O     17   4   2     1.499879048565    52.31867873    96.91229206
 O     17   4   2     1.493843733684    53.81528894   276.44217761
 O     17   4   2     1.444080447704   140.01225493   185.43048918
 C     13   4   2     1.877325795641   120.17308542    53.00942901
 F     21  13   4     1.355081054840   110.84947569   297.51087528
 F     21  13   4     1.352074303046   110.58975291    57.78558466
 F     21  13   4     1.351865628113   109.80275021   177.71864776
 C     17   4   2     1.883569633740   114.96233163     7.30064245
 F     25  17   4     1.345141294621   110.96043763   359.86169656
 F     25  17   4     1.348134833244   109.19799462   120.25388264
 F     25  17   4     1.348598668295   109.04959825   239.55132229
 C      1   2   3     3.138620052289   143.46059032   180.47499760
 N     29   1   2     1.156961987083     0.33044692   216.84105963
 C     29   1   2     1.444418351517   179.37965149    52.85978753
 H     31  29  30     1.102135766647   109.63051276   177.49961318
 H     31  29  30     1.102366964796   109.43796863    57.51667965
 H     31  29  30     1.102201652986   109.50634009   297.59274885
 C      1   2   3     3.058253608308   100.75810745    79.77243802
 N     35   1   2     1.155397420949     1.14148922    48.06820773
 C     35   1   2     1.442427650070   178.19881043   244.19631578
 H     37  35  36     1.101144053964   109.80576208   171.95930438
 H     37  35  36     1.103203094207   108.28206375    51.74521164
 H     37  35  36     1.101930492714   109.36557580   292.38417037
 C      1   2   3     3.053874005833    54.36220122   162.83187606
 N     41   1   2     1.155542001052     3.64738108   165.14519396
 C     41   1   2     1.442501891332   175.55509674   343.02992974
 H     43  41  42     1.101881660436   109.77050000   222.23686549
 H     43  41  42     1.101840126914   109.57876857   101.81405145
 H     43  41  42     1.104098538653   108.40058663   341.91977591
 C      1   2   3     3.065123310645    83.36850196   257.50529032
 N     47   1   2     1.155419855068     0.54093790   177.94686349
 C     47   1   2     1.445085411754   179.27080785     2.88542759
 H     49  47  48     1.102059619681   109.55074684   242.86266557
 H     49  47  48     1.101974135680   109.63656828   122.69019141
 H     49  47  48     1.102217365454   109.38364695     2.72675023
 C      1   2   3     3.065011337635   126.90778379   345.08797837
 N     53   1   2     1.155334643251     1.63816624   257.09509502
 C     53   1   2     1.444896379182   178.25270938    83.84359917
 H     55  53  54     1.101898177836   109.48086338   215.96068861
 H     55  53  54     1.101992953395   109.58045220    95.96963208
 H     55  53  54     1.101886269264   109.44663730   335.80677436
 H      2   1   3     0.969315698106    87.95462608   120.47339097

---------------------------
INTERNAL COORDINATES (A.U.)
---------------------------
 Fe     0   0   0     0.000000000000     0.00000000     0.00000000
 O      1   0   0     7.349400549066     0.00000000     0.00000000
 O      1   2   0     3.162854880001    36.11706451     0.00000000
 Sc     2   1   3     3.566123275838    67.98914442   323.76386240
 S      4   2   1     6.390885968626    86.96694344   256.69491913
 O      5   4   2     2.746784642899   112.18670215   233.37892753
 O      5   4   2     2.852410710742    22.83577343   137.78716756
 O      5   4   2     2.752668021354    96.19509054   356.84576423
 C      5   4   2     3.548453934306   120.27012474   108.55965680
 F      9   5   4     2.552101367948   110.52164470    77.08293350
 F      9   5   4     2.551999083766   109.39605453   196.79474106
 F      9   5   4     2.557621714844   110.78994470   316.57989286
 S      4   2   1     6.594466264325   175.04584761   340.53726853
 O     13   4   2     2.750646086918   104.27389811   170.17536403
 O     13   4   2     2.830817690704    20.15833469    50.32893417
 O     13   4   2     2.756024858940   105.61212034   294.54383490
 S      4   2   1     5.316689829420   100.56358097   143.09299080
 O     17   4   2     2.834360635794    52.31867873    96.91229206
 O     17   4   2     2.822955543537    53.81528894   276.44217761
 O     17   4   2     2.728916561510   140.01225493   185.43048918
 C     13   4   2     3.547631617907   120.17308542    53.00942901
 F     21  13   4     2.560732082914   110.84947569   297.51087528
 F     21  13   4     2.555050145470   110.58975291    57.78558466
 F     21  13   4     2.554655806995   109.80275021   177.71864776
 C     17   4   2     3.559430761940   114.96233163     7.30064245
 F     25  17   4     2.541948658261   110.96043763   359.86169656
 F     25  17   4     2.547605626431   109.19799462   120.25388264
 F     25  17   4     2.548482147648   109.04959825   239.55132229
 C      1   2   3     5.931132337260   143.46059032   180.47499760
 N     29   1   2     2.186341302944     0.33044692   216.84105963
 C     29   1   2     2.729555107178   179.37965149    52.85978753
 H     31  29  30     2.082734761361   109.63051276   177.49961318
 H     31  29  30     2.083171662547   109.43796863    57.51667965
 H     31  29  30     2.082859268499   109.50634009   297.59274885
 C      1   2   3     5.779261767778   100.75810745    79.77243802
 N     35   1   2     2.183384701433     1.14148922    48.06820773
 C     35   1   2     2.725793226628   178.19881043   244.19631578
 H     37  35  36     2.080860695988   109.80576208   171.95930438
 H     37  35  36     2.084751718146   108.28206375    51.74521164
 H     37  35  36     2.082346849845   109.36557580   292.38417037
 C      1   2   3     5.770985518526    54.36220122   162.83187606
 N     41   1   2     2.183657918232     3.64738108   165.14519396
 C     41   1   2     2.725933522281   175.55509674   343.02992974
 H     43  41  42     2.082254570214   109.77050000   222.23686549
 H     43  41  42     2.082176083233   109.57876857   101.81405145
 H     43  41  42     2.086443862917   108.40058663   341.91977591
 C      1   2   3     5.792243623817    83.36850196   257.50529032
 N     47   1   2     2.183427095774     0.54093790   177.94686349
 C     47   1   2     2.730815668340   179.27080785     2.88542759
 H     49  47  48     2.082590864450   109.55074684   242.86266557
 H     49  47  48     2.082429323100   109.63656828   122.69019141
 H     49  47  48     2.082888960761   109.38364695     2.72675023
 C      1   2   3     5.792032025495   126.90778379   345.08797837
 N     53   1   2     2.183266068777     1.63816624   257.09509502
 C     53   1   2     2.730458448548   178.25270938    83.84359917
 H     55  53  54     2.082285783576   109.48086338   215.96068861
 H     55  53  54     2.082464883428   109.58045220    95.96963208
 H     55  53  54     2.082263279638   109.44663730   335.80677436
 H      2   1   3     1.831741206730    87.95462608   120.47339097

---------------------
BASIS SET INFORMATION
---------------------
There are 8 groups of distinct atoms

 Group   1 Type Fe  : 17s11p7d1f contracted to 10s6p4d1f pattern {8111111111/611111/4111/1}
 Group   2 Type O   : 11s6p2d1f contracted to 6s3p2d1f pattern {611111/411/11/1}
 Group   3 Type Sc  : 17s11p7d1f contracted to 10s6p4d1f pattern {8111111111/611111/4111/1}
 Group   4 Type S   : 14s9p3d1f contracted to 8s4p2d1f pattern {71111111/6111/21/1}
 Group   5 Type C   : 7s4p1d contracted to 3s2p1d pattern {511/31/1}
 Group   6 Type F   : 11s6p2d1f contracted to 6s3p2d1f pattern {611111/411/11/1}
 Group   7 Type N   : 11s6p2d1f contracted to 6s3p2d1f pattern {611111/411/11/1}
 Group   8 Type H   : 5s1p contracted to 3s1p pattern {311/1}

Atom   0Fe   basis set group =>   1
Atom   1O    basis set group =>   2
Atom   2O    basis set group =>   2
Atom   3Sc   basis set group =>   3
Atom   4S    basis set group =>   4
Atom   5O    basis set group =>   2
Atom   6O    basis set group =>   2
Atom   7O    basis set group =>   2
Atom   8C    basis set group =>   5
Atom   9F    basis set group =>   6
Atom  10F    basis set group =>   6
Atom  11F    basis set group =>   6
Atom  12S    basis set group =>   4
Atom  13O    basis set group =>   2
Atom  14O    basis set group =>   2
Atom  15O    basis set group =>   2
Atom  16S    basis set group =>   4
Atom  17O    basis set group =>   2
Atom  18O    basis set group =>   2
Atom  19O    basis set group =>   2
Atom  20C    basis set group =>   5
Atom  21F    basis set group =>   6
Atom  22F    basis set group =>   6
Atom  23F    basis set group =>   6
Atom  24C    basis set group =>   5
Atom  25F    basis set group =>   6
Atom  26F    basis set group =>   6
Atom  27F    basis set group =>   6
Atom  28C    basis set group =>   5
Atom  29N    basis set group =>   7
Atom  30C    basis set group =>   5
Atom  31H    basis set group =>   8
Atom  32H    basis set group =>   8
Atom  33H    basis set group =>   8
Atom  34C    basis set group =>   5
Atom  35N    basis set group =>   7
Atom  36C    basis set group =>   5
Atom  37H    basis set group =>   8
Atom  38H    basis set group =>   8
Atom  39H    basis set group =>   8
Atom  40C    basis set group =>   5
Atom  41N    basis set group =>   7
Atom  42C    basis set group =>   5
Atom  43H    basis set group =>   8
Atom  44H    basis set group =>   8
Atom  45H    basis set group =>   8
Atom  46C    basis set group =>   5
Atom  47N    basis set group =>   7
Atom  48C    basis set group =>   5
Atom  49H    basis set group =>   8
Atom  50H    basis set group =>   8
Atom  51H    basis set group =>   8
Atom  52C    basis set group =>   5
Atom  53N    basis set group =>   7
Atom  54C    basis set group =>   5
Atom  55H    basis set group =>   8
Atom  56H    basis set group =>   8
Atom  57H    basis set group =>   8
Atom  58H    basis set group =>   8
---------------------------------
AUXILIARY/J BASIS SET INFORMATION
---------------------------------
There are 8 groups of distinct atoms

 Group   1 Type Fe  : 19s5p5d3f3g contracted to 19s5p5d3f3g pattern {1111111111111111111/11111/11111/111/111}
 Group   2 Type O   : 12s5p4d2f1g contracted to 12s5p4d2f1g pattern {111111111111/11111/1111/11/1}
 Group   3 Type Sc  : 19s5p5d3f3g contracted to 19s5p5d3f3g pattern {1111111111111111111/11111/11111/111/111}
 Group   4 Type S   : 14s5p5d2f1g contracted to 14s5p5d2f1g pattern {11111111111111/11111/11111/11/1}
 Group   5 Type C   : 12s5p4d2f1g contracted to 12s5p4d2f1g pattern {111111111111/11111/1111/11/1}
 Group   6 Type F   : 12s5p4d2f1g contracted to 12s5p4d2f1g pattern {111111111111/11111/1111/11/1}
 Group   7 Type N   : 12s5p4d2f1g contracted to 12s5p4d2f1g pattern {111111111111/11111/1111/11/1}
 Group   8 Type H   : 5s2p1d contracted to 5s2p1d pattern {11111/11/1}

Atom   0Fe   basis set group =>   1
Atom   1O    basis set group =>   2
Atom   2O    basis set group =>   2
Atom   3Sc   basis set group =>   3
Atom   4S    basis set group =>   4
Atom   5O    basis set group =>   2
Atom   6O    basis set group =>   2
Atom   7O    basis set group =>   2
Atom   8C    basis set group =>   5
Atom   9F    basis set group =>   6
Atom  10F    basis set group =>   6
Atom  11F    basis set group =>   6
Atom  12S    basis set group =>   4
Atom  13O    basis set group =>   2
Atom  14O    basis set group =>   2
Atom  15O    basis set group =>   2
Atom  16S    basis set group =>   4
Atom  17O    basis set group =>   2
Atom  18O    basis set group =>   2
Atom  19O    basis set group =>   2
Atom  20C    basis set group =>   5
Atom  21F    basis set group =>   6
Atom  22F    basis set group =>   6
Atom  23F    basis set group =>   6
Atom  24C    basis set group =>   5
Atom  25F    basis set group =>   6
Atom  26F    basis set group =>   6
Atom  27F    basis set group =>   6
Atom  28C    basis set group =>   5
Atom  29N    basis set group =>   7
Atom  30C    basis set group =>   5
Atom  31H    basis set group =>   8
Atom  32H    basis set group =>   8
Atom  33H    basis set group =>   8
Atom  34C    basis set group =>   5
Atom  35N    basis set group =>   7
Atom  36C    basis set group =>   5
Atom  37H    basis set group =>   8
Atom  38H    basis set group =>   8
Atom  39H    basis set group =>   8
Atom  40C    basis set group =>   5
Atom  41N    basis set group =>   7
Atom  42C    basis set group =>   5
Atom  43H    basis set group =>   8
Atom  44H    basis set group =>   8
Atom  45H    basis set group =>   8
Atom  46C    basis set group =>   5
Atom  47N    basis set group =>   7
Atom  48C    basis set group =>   5
Atom  49H    basis set group =>   8
Atom  50H    basis set group =>   8
Atom  51H    basis set group =>   8
Atom  52C    basis set group =>   5
Atom  53N    basis set group =>   7
Atom  54C    basis set group =>   5
Atom  55H    basis set group =>   8
Atom  56H    basis set group =>   8
Atom  57H    basis set group =>   8
Atom  58H    basis set group =>   8

Checking for AutoStart:
The File: FeIIAcNOOSc-H+_s_P_freq.gbw exists
Trying to determine its content:
     ... Fine, the file contains calculation information
     ... Fine, the calculation information was read
     ... Fine, the file contains a basis set
     ... Fine, the basis set was read
     ... Fine, the file contains a geometry
     ... Fine, the geometry was read
     ... The file does not contain orbitals - skipping AutoStart


           ************************************************************
           *        Program running with 8 parallel MPI-processes     *
           *              working on a common directory               *
           ************************************************************
------------------------------------------------------------------------------
                           ORCA GTO INTEGRAL CALCULATION
                           -- RI-GTO INTEGRALS CHOSEN --
------------------------------------------------------------------------------
------------------------------------------------------------------------------
                   ___                                                        
                  /   \      - P O W E R E D   B Y -                         
                 /     \                                                     
                 |  |  |   _    _      __       _____    __    __             
                 |  |  |  | |  | |    /  \     |  _  \  |  |  /  |          
                  \  \/   | |  | |   /    \    | | | |  |  | /  /          
                 / \  \   | |__| |  /  /\  \   | |_| |  |  |/  /          
                |  |  |   |  __  | /  /__\  \  |    /   |      \           
                |  |  |   | |  | | |   __   |  |    \   |  |\   \          
                \     /   | |  | | |  |  |  |  | |\  \  |  | \   \       
                 \___/    |_|  |_| |__|  |__|  |_| \__\ |__|  \__/        
                                                                              
                      - O R C A' S   B I G   F R I E N D -                    
                                      &                                       
                       - I N T E G R A L  F E E D E R -                       
                                                                              
 v1 FN, 2020, v2 2021                                                         
------------------------------------------------------------------------------


Reading SHARK input file FeIIAcNOOSc-H+_s_P_freq.SHARKINP.tmp ... ok
----------------------
SHARK INTEGRAL PACKAGE
----------------------

Number of atoms                             ...     59
Number of basis functions                   ...   1299
Number of shells                            ...    529
Maximum angular momentum                    ...      3
Integral batch strategy                     ... SHARK/LIBINT Hybrid
RI-J (if used) integral strategy            ... SPLIT-RIJ (Revised 2003 algorithm where possible)
Printlevel                                  ...      1
Contraction scheme used                     ... SEGMENTED contraction
Coulomb Range Separation                    ... NOT USED
Exchange Range Separation                   ... NOT USED
Finite Nucleus Model                        ... NOT USED
Auxiliary Coulomb fitting basis             ... AVAILABLE
   # of basis functions in Aux-J            ...   3361
   # of shells in Aux-J                     ...   1191
   Maximum angular momentum in Aux-J        ...      4
Auxiliary J/K fitting basis                 ... NOT available
Auxiliary Correlation fitting basis         ... NOT available
Auxiliary 'external' fitting basis          ... NOT available
Integral threshold                          ...     2.500000e-11
Primitive cut-off                           ...     2.500000e-12
Primitive pair pre-selection threshold      ...     2.500000e-12

Calculating pre-screening integrals         ... done (  0.2 sec) Dimension = 529
Organizing shell pair data                  ... done (  2.3 sec)
Shell pair information
Total number of shell pairs                 ...    140185
Shell pairs after pre-screening             ...     63823
Total number of primitive shell pairs       ...    410916
Primitive shell pairs kept                  ...    116044
          la=0 lb=0:  16086 shell pairs
          la=1 lb=0:  19754 shell pairs
          la=1 lb=1:   5916 shell pairs
          la=2 lb=0:   8907 shell pairs
          la=2 lb=1:   5550 shell pairs
          la=2 lb=2:   1315 shell pairs
          la=3 lb=0:   3154 shell pairs
          la=3 lb=1:   2054 shell pairs
          la=3 lb=2:    908 shell pairs
          la=3 lb=3:    179 shell pairs

Calculating one electron integrals          ... done (  0.2 sec)
Calculating RI/J V-Matrix + Cholesky decomp.... done (  4.3 sec)
Calculating Nuclear repulsion               ... done (  0.0 sec) ENN=   8785.436722668122 Eh

SHARK setup successfully completed in  10.6 seconds

Maximum memory used throughout the entire GTOINT-calculation: 118.6 MB


           ************************************************************
           *        Program running with 8 parallel MPI-processes     *
           *              working on a common directory               *
           ************************************************************
-------------------------------------------------------------------------------
                                 ORCA SCF
-------------------------------------------------------------------------------

------------
SCF SETTINGS
------------
Hamiltonian:
 Density Functional     Method          .... DFT(GTOs)
 Exchange Functional    Exchange        .... B88
   X-Alpha parameter    XAlpha          ....  0.666667
   Becke's b parameter  XBeta           ....  0.004200
 Correlation Functional Correlation     .... P86
 LDA part of GGA corr.  LDAOpt          .... PW91-LDA
 Gradients option       PostSCFGGA      .... off
   Density functional embedding theory  .... OFF
   NL short-range parameter             ....  4.400000
 RI-approximation to the Coulomb term is turned on
   Number of AuxJ basis functions       .... 3361


General Settings:
 Integral files         IntName         .... FeIIAcNOOSc-H+_s_P_freq
 Hartree-Fock type      HFTyp           .... UHF
 Total Charge           Charge          ....    1
 Multiplicity           Mult            ....    3
 Number of Electrons    NEL             ....  392
 Basis Dimension        Dim             .... 1299
 Nuclear Repulsion      ENuc            ....   8785.4367226681 Eh

Convergence Acceleration:
 DIIS                   CNVDIIS         .... off
 Trust-Rad. Augm. Hess. CNVTRAH         .... auto
   Auto Start mean grad. ratio tolernc. ....  1.125000
   Auto Start start iteration           ....    20
   Auto Start num. interpolation iter.  ....    10
   Max. Number of Micro iterations      ....    16
   Max. Number of Macro iterations      .... Maxiter - #DIIS iter
   Number of Davidson start vectors     ....     2
   Converg. threshold I  (grad. norm)   ....   1.000e-05
   Converg. threshold II (energy diff.) ....   1.000e-08
   Grad. Scal. Fac. for Micro threshold ....   0.100
   Minimum threshold for Micro iter.    ....   0.010
   NR start threshold (gradient norm)   ....   0.001
   Initial trust radius                 ....   0.400
   Minimum AH scaling param. (alpha)    ....   1.000
   Maximum AH scaling param. (alpha)    .... 1000.000
   Orbital update algorithm             .... Taylor
   White noise on init. David. guess    .... on
   Maximum white noise                  ....   0.010
   Quad. conv. algorithm                .... NR
 SOSCF                  CNVSOSCF        .... on
   Start iteration      SOSCFMaxIt      ....   150
   Startup grad/error   SOSCFStart      ....  0.000000
 Level Shifting         CNVShift        .... on
   Level shift para.    LevelShift      ....    0.1000
   Turn off err/grad.   ShiftErr        ....    0.0010
 Zerner damping         CNVZerner       .... off
 Static damping         CNVDamp         .... off
 Fernandez-Rico         CNVRico         .... off

SCF Procedure:
 Maximum # iterations   MaxIter         ....   400
 SCF integral mode      SCFMode         .... Direct
   Integral package                     .... SHARK and LIBINT hybrid scheme
 Reset frequency        DirectResetFreq ....    20
 Integral Threshold     Thresh          ....  2.500e-11 Eh
 Primitive CutOff       TCut            ....  2.500e-12 Eh

Convergence Tolerance:
 Convergence Check Mode ConvCheckMode   .... Total+1el-Energy
 Convergence forced     ConvForced      .... 0
 Energy Change          TolE            ....  1.000e-08 Eh
 1-El. energy change                    ....  1.000e-05 Eh
 Orbital Gradient       TolG            ....  1.000e-05
 Orbital Rotation angle TolX            ....  1.000e-05


Diagonalization of the overlap matrix:
Smallest eigenvalue                        ... 1.111e-04
Time for diagonalization                   ...    0.309 sec
Threshold for overlap eigenvalues          ... 1.000e-08
Number of eigenvalues below threshold      ... 0
Time for construction of square roots      ...    1.084 sec
Total time needed                          ...    1.405 sec

Time for model grid setup =    2.524 sec

------------------------------
INITIAL GUESS: MODEL POTENTIAL
------------------------------
Loading Hartree-Fock densities                     ... done
Calculating cut-offs                               ... done
Initializing the effective Hamiltonian             ... done
Setting up the integral package (SHARK)            ... done
Starting the Coulomb interaction                   ... done (   2.3 sec)
Reading the grid                                   ... done
Mapping shells                                     ... done
Starting the XC term evaluation                    ... done (   0.9 sec)
  promolecular density results
     # of electrons  =    392.994044408
     EX              =   -452.909623456
     EC              =    -15.762439936
     EX+EC           =   -468.672063392
Transforming the Hamiltonian                       ... done (   0.2 sec)
Diagonalizing the Hamiltonian                      ... done (   0.3 sec)
Back transforming the eigenvectors                 ... done (   0.1 sec)
Now organizing SCF variables                       ... done
                      ------------------
                      INITIAL GUESS DONE (   6.6 sec)
                      ------------------
-------------------
DFT GRID GENERATION
-------------------

General Integration Accuracy     IntAcc      ... 6.000
Radial Grid Type                 RadialGrid  ... OptM3 with GC (2021)
Angular Grid (max. ang.)         AngularGrid ... 4 (Lebedev-302)
Angular grid pruning method      GridPruning ... 4 (adaptive)
Weight generation scheme         WeightScheme... Becke
Basis function cutoff            BFCut       ... 1.0000e-11
Integration weight cutoff        WCut        ... 1.0000e-14
Angular grids for H and He will be reduced by one unit
Partially contracted basis set               ... off
Rotationally invariant grid construction     ... off

Total number of grid points                  ...   506954
Total number of batches                      ...     7952
Average number of points per batch           ...       63
Average number of grid points per atom       ...     8592
Time for grid setup =    7.742 sec


--------------------
CPCM SOLVATION MODEL
--------------------
CPCM parameters:
  Epsilon                                         ...      36.6000
  Refrac                                          ...       1.3440
  Rsolv                                           ...       1.3000
  Surface type                                    ... GAUSSIAN VDW
  Epsilon function type                           ...         CPCM
Radii:
 Radius for Fe used is    4.5353 Bohr (=   2.4000 Ang.)
 Radius for O  used is    3.4469 Bohr (=   1.8240 Ang.)
 Radius for Sc used is    4.5353 Bohr (=   2.4000 Ang.)
 Radius for S  used is    4.0818 Bohr (=   2.1600 Ang.)
 Radius for C  used is    3.8550 Bohr (=   2.0400 Ang.)
 Radius for F  used is    3.3335 Bohr (=   1.7640 Ang.)
 Radius for N  used is    3.5149 Bohr (=   1.8600 Ang.)
 Radius for H  used is    2.4944 Bohr (=   1.3200 Ang.)
Calculating surface                               ...        done! (  0.0s)
GEPOL surface points                              ...         3626
GEPOL Volume                                      ...    4676.5145
GEPOL Surface-area                                ...    2332.8684
Calculating surface distance matrix               ...        done! (  0.3s)
Performing Cholesky decomposition & store         ...        done! (  3.8s)
Overall time for CPCM initialization              ...                 4.1s
--------------
SCF ITERATIONS
--------------
ITER       Energy         Delta-E        Max-DP      RMS-DP      [F,P]   Gradient Norm
               ***  Starting incremental Fock matrix formation  ***
                             ****Resetting KDIIS****
                             ****Turning on KDIIS(Cayley)****
  0  -5722.2258138687   0.000000000000 0.08165596  0.00027548  0.2991888   0.145157507
  1  -5723.8554781011  -1.629664232407 0.06642031  0.00027486  0.2011161   0.090559076
  2  -5724.5629624461  -0.707484345031 0.09259765  0.00029069  0.0497810   0.047978728
  3  -5724.8571715216  -0.294209075434 0.04605160  0.00021960  0.0255756   0.013699748
  4  -5724.8415757221   0.015595799441 0.02657009  0.00011845  0.0823668   0.025152209
  5  -5724.9032298659  -0.061654143823 0.04999620  0.00014041  0.0175935   0.006781590
  6  -5724.9164938704  -0.013264004455 0.04115813  0.00011504  0.0138375   0.008938530
  7  -5724.9167738281  -0.000279957745 0.01987537  0.00007268  0.0528999   0.014540461
  8  -5724.9289782226  -0.012204394457 0.00840927  0.00004740  0.0095021   0.006723774
  9  -5724.9334097895  -0.004431566864 0.00860973  0.00004400  0.0058209   0.004112745
 10  -5724.9343992805  -0.000989491065 0.00513461  0.00002560  0.0139784   0.005141462
 11  -5724.9364430128  -0.002043732226 0.00304894  0.00001305  0.0054646   0.001948512
 12  -5724.9369345670  -0.000491554292 0.00415809  0.00001924  0.0033026   0.001200588
 13  -5724.9360599845   0.000874582525 0.00446753  0.00001402  0.0111981   0.003172371
 14  -5724.9372249916  -0.001165007052 0.00086523  0.00000488  0.0006918   0.000528904
 15  -5724.9372203876   0.000004603937 0.00057388  0.00000311  0.0008760   0.000615537
 16  -5724.9372711736  -0.000050785926 0.00048297  0.00000257  0.0002560   0.000182059
 17  -5724.9372495105   0.000021663022 0.00042572  0.00000188  0.0010629   0.000460492
 18  -5724.9372746325  -0.000025121994 0.00027516  0.00000137  0.0001490   0.000155645
 19  -5724.9372751213  -0.000000488793 0.00029324  0.00000119  0.0002945   0.000156047
               *** Restarting incremental Fock matrix formation ***
                             ****Resetting KDIIS****
 20  -5724.9372749706   0.000000150770 0.00008402  0.00000035  0.0003058   0.000174263
 21  -5724.9372772920  -0.000002321452 0.00006062  0.00000032  0.0001590   0.000095865
 22  -5724.9372780787  -0.000000786737 0.00005122  0.00000021  0.0001348   0.000052158
 23  -5724.9372780427   0.000000036063 0.00011049  0.00000034  0.0000744   0.000026259
 24  -5724.9372779829   0.000000059811 0.00015490  0.00000047  0.0000377   0.000018026
 25  -5724.9372781329  -0.000000150036 0.00005789  0.00000028  0.0000323   0.000026418
 26  -5724.9372780323   0.000000100615 0.00010782  0.00000032  0.0000242   0.000021601
 27  -5724.9372781213  -0.000000088989 0.00001204  0.00000006  0.0000130   0.000008599
 28  -5724.9372781911  -0.000000069766 0.00001588  0.00000007  0.0000072   0.000004063
 29  -5724.9372778809   0.000000310151 0.00001774  0.00000006  0.0000336   0.000013037
 30  -5724.9372781662  -0.000000285273 0.00000450  0.00000002  0.0000060   0.000002829
 31  -5724.9372781938  -0.000000027590 0.00000516  0.00000003  0.0000019   0.000001165
 32  -5724.9372782435  -0.000000049772 0.00000366  0.00000002  0.0000026   0.000002092
 33  -5724.9372780894   0.000000154128 0.00000730  0.00000002  0.0000009   0.000000739
 34  -5724.9372782300  -0.000000140581 0.00001070  0.00000004  0.0000011   0.000000539
 35  -5724.9372783182  -0.000000088249 0.00000155  0.00000001  0.0000014   0.000000564
 36  -5724.9372781510   0.000000167189 0.00000415  0.00000001  0.0000039   0.000001180
 37  -5724.9372779729   0.000000178191 0.00000707  0.00000003  0.0000007   0.000000371
 38  -5724.9372780838  -0.000000110940 0.00000335  0.00000001  0.0000007   0.000000323
 39  -5724.9372781513  -0.000000067529 0.00000955  0.00000004  0.0000008   0.000000618
               *** Restarting incremental Fock matrix formation ***
                             ****Resetting KDIIS****

 WARNING: the maximum gradient error descreased on average only by a factor   1.1
          during the last 20 iterations

                      *** Initiating the TRAH-SCF procedure ***

                    *** KDIIS BlockDiag ( 1.123 sec) ***

TRAH GRID
---------

General Integration Accuracy     IntAcc      ... 3.467
Radial Grid Type                 RadialGrid  ... OptM3 with GC (2021)
Angular Grid (max. ang.)         AngularGrid ... 1 (Lebedev-50)
Angular grid pruning method      GridPruning ... 4 (adaptive)
Weight generation scheme         WeightScheme... Becke
Basis function cutoff            BFCut       ... 1.0000e-11
Integration weight cutoff        WCut        ... 1.0000e-14
Angular grids for H and He will be reduced by one unit
Partially contracted basis set               ... off
Rotationally invariant grid construction     ... off

Total number of grid points                  ...    52827
Total number of batches                      ...      855
Average number of points per batch           ...       61
Average number of grid points per atom       ...      895

 --------------------------------------------------------------------------------------------
   Iter.        energy            ||Error||_2        Shift      TRadius  Mac/Mic        Rej.
 --------------------------------------------------------------------------------------------
    0      -5724.937279572336     9.518706e-06                     0.400 (TRAH MAcro)   No

               *****************************************************
               *                     SUCCESS                       *
               *           SCF CONVERGED AFTER  41 CYCLES          *
               *****************************************************


----------------
TOTAL SCF ENERGY
----------------

Total Energy       :        -5724.93727957 Eh         -155783.46326 eV

Components:
Nuclear Repulsion  :         8785.43672267 Eh          239063.88700 eV
Electronic Energy  :       -14510.37400224 Eh         -394847.35025 eV
One Electron Energy:       -25384.49569622 Eh         -690747.24481 eV
Two Electron Energy:        10874.12169398 Eh          295899.89455 eV
CPCM Dielectric    :           -0.18587192 Eh              -5.05783 eV

Virial components:
Potential Energy   :       -11434.25445104 Eh         -311141.88176 eV
Kinetic Energy     :         5709.31717147 Eh          155358.41851 eV
Virial Ratio       :            2.00273590


DFT components:
N(Alpha)           :      197.000053801396 electrons
N(Beta)            :      195.000053281184 electrons
N(Total)           :      392.000107082579 electrons
E(X)               :     -455.950629888332 Eh       
E(C)               :      -15.722006571596 Eh       
E(XC)              :     -471.672636459927 Eh       
DFET-embed. en.    :        0.000000000000 Eh       
CPCM Solvation Model Properties:
Surface-charge          :           -1.02080291
Charge-correction       :            0.00149550 Eh               0.04069 eV
Free-energy (cav+disp)  :  This term is not implemented in the current solvation scheme

---------------
SCF CONVERGENCE
---------------

  Last Energy change         ...   -5.7249e+03  Tolerance :   1.0000e-08
  Last Orbital Gradient      ...    9.5187e-06  Tolerance :   1.0000e-05
  Last Orbital Rotation      ...    0.0000e+00

             **** THE GBW FILE WAS UPDATED (FeIIAcNOOSc-H+_s_P_freq.gbw) ****
             **** DENSITY FeIIAcNOOSc-H+_s_P_freq.scfp WAS UPDATED ****
             **** ENERGY FILE WAS UPDATED (FeIIAcNOOSc-H+_s_P_freq.en.tmp) ****
----------------------
UHF SPIN CONTAMINATION
----------------------

Warning: in a DFT calculation there is little theoretical justification to 
         calculate <S**2> as in Hartree-Fock theory. We will do it anyways
         but you should keep in mind that the values have only limited relevance

Expectation value of <S**2>     :     2.010970
Ideal value S*(S+1) for S=1.0   :     2.000000
Deviation                       :     0.010970

             **** THE GBW FILE WAS UPDATED (FeIIAcNOOSc-H+_s_P_freq.gbw) ****
             **** DENSITY FeIIAcNOOSc-H+_s_P_freq.scfp WAS UPDATED ****
----------------
ORBITAL ENERGIES
----------------
                 SPIN UP ORBITALS
  NO   OCC          E(Eh)            E(eV) 
   0   1.0000    -254.810996     -6933.7597 
   1   1.0000    -160.649959     -4371.5076 
   2   1.0000     -88.336470     -2403.7576 
   3   1.0000     -88.323804     -2403.4129 
   4   1.0000     -88.318834     -2403.2776 
   5   1.0000     -29.679737      -807.6267 
   6   1.0000     -25.624937      -697.2900 
   7   1.0000     -25.612797      -696.9596 
   8   1.0000     -25.609865      -696.8799 
   9   1.0000     -24.349290      -662.5779 
  10   1.0000     -24.348853      -662.5660 
  11   1.0000     -24.348752      -662.5632 
  12   1.0000     -24.345247      -662.4678 
  13   1.0000     -24.344273      -662.4414 
  14   1.0000     -24.343894      -662.4310 
  15   1.0000     -24.342841      -662.4024 
  16   1.0000     -24.341677      -662.3707 
  17   1.0000     -24.341252      -662.3591 
  18   1.0000     -18.855198      -513.0760 
  19   1.0000     -18.816653      -512.0272 
  20   1.0000     -18.814436      -511.9668 
  21   1.0000     -18.808908      -511.8164 
  22   1.0000     -18.804675      -511.7012 
  23   1.0000     -18.800468      -511.5868 
  24   1.0000     -18.789177      -511.2795 
  25   1.0000     -18.787251      -511.2271 
  26   1.0000     -18.784643      -511.1561 
  27   1.0000     -18.783313      -511.1199 
  28   1.0000     -18.764853      -510.6176 
  29   1.0000     -17.254124      -469.5086 
  30   1.0000     -14.247018      -387.6811 
  31   1.0000     -14.246787      -387.6748 
  32   1.0000     -14.244991      -387.6259 
  33   1.0000     -14.078589      -383.0979 
  34   1.0000     -14.077683      -383.0732 
  35   1.0000     -14.077020      -383.0552 
  36   1.0000     -14.075965      -383.0265 
  37   1.0000     -14.072481      -382.9317 
  38   1.0000     -10.194965      -277.4191 
  39   1.0000     -10.186503      -277.1888 
  40   1.0000     -10.182593      -277.0824 
  41   1.0000     -10.024576      -272.7826 
  42   1.0000     -10.024337      -272.7761 
  43   1.0000     -10.023698      -272.7587 
  44   1.0000     -10.023283      -272.7474 
  45   1.0000     -10.022764      -272.7333 
  46   1.0000      -9.969218      -271.2762 
  47   1.0000      -9.968703      -271.2622 
  48   1.0000      -9.967982      -271.2426 
  49   1.0000      -9.963009      -271.1073 
  50   1.0000      -9.962884      -271.1038 
  51   1.0000      -7.877477      -214.3570 
  52   1.0000      -7.864000      -213.9903 
  53   1.0000      -7.858839      -213.8499 
  54   1.0000      -5.899605      -160.5364 
  55   1.0000      -5.899099      -160.5227 
  56   1.0000      -5.898373      -160.5029 
  57   1.0000      -5.886474      -160.1791 
  58   1.0000      -5.885708      -160.1583 
  59   1.0000      -5.884640      -160.1292 
  60   1.0000      -5.881170      -160.0348 
  61   1.0000      -5.880638      -160.0203 
  62   1.0000      -5.879594      -159.9919 
  63   1.0000      -3.420833       -93.0856 
  64   1.0000      -2.254050       -61.3358 
  65   1.0000      -2.228215       -60.6328 
  66   1.0000      -2.222285       -60.4714 
  67   1.0000      -1.985973       -54.0411 
  68   1.0000      -1.240812       -33.7642 
  69   1.0000      -1.234951       -33.6047 
  70   1.0000      -1.231855       -33.5205 
  71   1.0000      -1.228077       -33.4177 
  72   1.0000      -1.227281       -33.3960 
  73   1.0000      -1.225311       -33.3424 
  74   1.0000      -1.160176       -31.5700 
  75   1.0000      -1.159682       -31.5565 
  76   1.0000      -1.154550       -31.4169 
  77   1.0000      -1.154295       -31.4100 
  78   1.0000      -1.151593       -31.3364 
  79   1.0000      -1.151321       -31.3290 
  80   1.0000      -1.080549       -29.4032 
  81   1.0000      -1.065219       -28.9861 
  82   1.0000      -1.061379       -28.8816 
  83   1.0000      -0.961253       -26.1570 
  84   1.0000      -0.947905       -25.7938 
  85   1.0000      -0.941156       -25.6101 
  86   1.0000      -0.938724       -25.5440 
  87   1.0000      -0.937259       -25.5041 
  88   1.0000      -0.933995       -25.4153 
  89   1.0000      -0.917398       -24.9637 
  90   1.0000      -0.900332       -24.4993 
  91   1.0000      -0.898462       -24.4484 
  92   1.0000      -0.897407       -24.4197 
  93   1.0000      -0.895409       -24.3653 
  94   1.0000      -0.894904       -24.3516 
  95   1.0000      -0.869962       -23.6729 
  96   1.0000      -0.727189       -19.7878 
  97   1.0000      -0.726078       -19.7576 
  98   1.0000      -0.725459       -19.7407 
  99   1.0000      -0.723558       -19.6890 
 100   1.0000      -0.722850       -19.6698 
 101   1.0000      -0.693575       -18.8731 
 102   1.0000      -0.686104       -18.6698 
 103   1.0000      -0.682572       -18.5737 
 104   1.0000      -0.612178       -16.6582 
 105   1.0000      -0.605101       -16.4656 
 106   1.0000      -0.601291       -16.3619 
 107   1.0000      -0.567535       -15.4434 
 108   1.0000      -0.567315       -15.4374 
 109   1.0000      -0.562667       -15.3109 
 110   1.0000      -0.562149       -15.2969 
 111   1.0000      -0.559752       -15.2316 
 112   1.0000      -0.559256       -15.2181 
 113   1.0000      -0.552800       -15.0425 
 114   1.0000      -0.532233       -14.4828 
 115   1.0000      -0.528110       -14.3706 
 116   1.0000      -0.524042       -14.2599 
 117   1.0000      -0.513583       -13.9753 
 118   1.0000      -0.506301       -13.7772 
 119   1.0000      -0.500541       -13.6204 
 120   1.0000      -0.500100       -13.6084 
 121   1.0000      -0.475944       -12.9511 
 122   1.0000      -0.469869       -12.7858 
 123   1.0000      -0.467760       -12.7284 
 124   1.0000      -0.466557       -12.6957 
 125   1.0000      -0.464462       -12.6387 
 126   1.0000      -0.463558       -12.6140 
 127   1.0000      -0.459062       -12.4917 
 128   1.0000      -0.455107       -12.3841 
 129   1.0000      -0.454861       -12.3774 
 130   1.0000      -0.448441       -12.2027 
 131   1.0000      -0.447665       -12.1816 
 132   1.0000      -0.446222       -12.1423 
 133   1.0000      -0.443672       -12.0729 
 134   1.0000      -0.441072       -12.0022 
 135   1.0000      -0.439711       -11.9651 
 136   1.0000      -0.438222       -11.9246 
 137   1.0000      -0.437485       -11.9046 
 138   1.0000      -0.437107       -11.8943 
 139   1.0000      -0.435605       -11.8534 
 140   1.0000      -0.435097       -11.8396 
 141   1.0000      -0.434469       -11.8225 
 142   1.0000      -0.433968       -11.8089 
 143   1.0000      -0.432709       -11.7746 
 144   1.0000      -0.431312       -11.7366 
 145   1.0000      -0.430726       -11.7206 
 146   1.0000      -0.429850       -11.6968 
 147   1.0000      -0.428424       -11.6580 
 148   1.0000      -0.427482       -11.6324 
 149   1.0000      -0.425439       -11.5768 
 150   1.0000      -0.424450       -11.5499 
 151   1.0000      -0.420377       -11.4391 
 152   1.0000      -0.414517       -11.2796 
 153   1.0000      -0.410674       -11.1750 
 154   1.0000      -0.407761       -11.0957 
 155   1.0000      -0.407159       -11.0794 
 156   1.0000      -0.406453       -11.0602 
 157   1.0000      -0.402701       -10.9581 
 158   1.0000      -0.401486       -10.9250 
 159   1.0000      -0.400041       -10.8857 
 160   1.0000      -0.398682       -10.8487 
 161   1.0000      -0.391212       -10.6454 
 162   1.0000      -0.383647       -10.4396 
 163   1.0000      -0.379957       -10.3392 
 164   1.0000      -0.378323       -10.2947 
 165   1.0000      -0.377649       -10.2764 
 166   1.0000      -0.354713        -9.6522 
 167   1.0000      -0.352788        -9.5998 
 168   1.0000      -0.352234        -9.5848 
 169   1.0000      -0.351740        -9.5713 
 170   1.0000      -0.351160        -9.5555 
 171   1.0000      -0.350495        -9.5375 
 172   1.0000      -0.349699        -9.5158 
 173   1.0000      -0.348420        -9.4810 
 174   1.0000      -0.344779        -9.3819 
 175   1.0000      -0.344406        -9.3718 
 176   1.0000      -0.339738        -9.2447 
 177   1.0000      -0.338580        -9.2132 
 178   1.0000      -0.336694        -9.1619 
 179   1.0000      -0.336093        -9.1456 
 180   1.0000      -0.326322        -8.8797 
 181   1.0000      -0.323003        -8.7894 
 182   1.0000      -0.318332        -8.6623 
 183   1.0000      -0.312219        -8.4959 
 184   1.0000      -0.307008        -8.3541 
 185   1.0000      -0.304084        -8.2745 
 186   1.0000      -0.300089        -8.1658 
 187   1.0000      -0.297472        -8.0946 
 188   1.0000      -0.296317        -8.0632 
 189   1.0000      -0.293745        -7.9932 
 190   1.0000      -0.291716        -7.9380 
 191   1.0000      -0.291347        -7.9280 
 192   1.0000      -0.286439        -7.7944 
 193   1.0000      -0.276417        -7.5217 
 194   1.0000      -0.268062        -7.2944 
 195   1.0000      -0.266426        -7.2498 
 196   1.0000      -0.261115        -7.1053 
 197   0.0000      -0.190810        -5.1922 
 198   0.0000      -0.174118        -4.7380 
 199   0.0000      -0.084118        -2.2890 
 200   0.0000      -0.071706        -1.9512 
 201   0.0000      -0.071322        -1.9408 
 202   0.0000      -0.070350        -1.9143 
 203   0.0000      -0.069044        -1.8788 
 204   0.0000      -0.067976        -1.8497 
 205   0.0000      -0.067089        -1.8256 
 206   0.0000      -0.061250        -1.6667 
 207   0.0000      -0.059892        -1.6297 
 208   0.0000      -0.054162        -1.4738 
 209   0.0000      -0.047544        -1.2937 
 210   0.0000      -0.042778        -1.1640 
 211   0.0000      -0.042526        -1.1572 
 212   0.0000      -0.037726        -1.0266 
 213   0.0000      -0.018184        -0.4948 
 214   0.0000      -0.014090        -0.3834 
 215   0.0000      -0.000391        -0.0106 
 216   0.0000       0.003549         0.0966 
 217   0.0000       0.007170         0.1951 
 218   0.0000       0.010727         0.2919 
 219   0.0000       0.012975         0.3531 
 220   0.0000       0.015852         0.4314 
 221   0.0000       0.016981         0.4621 
 222   0.0000       0.019046         0.5183 
 223   0.0000       0.022770         0.6196 
 224   0.0000       0.024437         0.6650 
 225   0.0000       0.027784         0.7560 
 226   0.0000       0.030278         0.8239 
 227   0.0000       0.032827         0.8933 
 228   0.0000       0.035797         0.9741 
 229   0.0000       0.042172         1.1476 
 230   0.0000       0.049937         1.3589 
 231   0.0000       0.054824         1.4918 
 232   0.0000       0.074417         2.0250 
 233   0.0000       0.078045         2.1237 
 234   0.0000       0.080276         2.1844 
 235   0.0000       0.083829         2.2811 
 236   0.0000       0.092307         2.5118 
 237   0.0000       0.092940         2.5290 
 238   0.0000       0.095525         2.5994 
 239   0.0000       0.096936         2.6378 
 240   0.0000       0.098442         2.6787 
 241   0.0000       0.098636         2.6840 
 242   0.0000       0.103338         2.8120 
 243   0.0000       0.103902         2.8273 
 244   0.0000       0.105314         2.8657 
 245   0.0000       0.107724         2.9313 
 246   0.0000       0.110645         3.0108 
 247   0.0000       0.113621         3.0918 
 248   0.0000       0.117448         3.1959 
 249   0.0000       0.117577         3.1994 
 250   0.0000       0.120296         3.2734 
 251   0.0000       0.123006         3.3472 
 252   0.0000       0.123959         3.3731 
 253   0.0000       0.126574         3.4442 
 254   0.0000       0.128479         3.4961 
 255   0.0000       0.130747         3.5578 
 256   0.0000       0.135336         3.6827 
 257   0.0000       0.139090         3.7848 
 258   0.0000       0.140902         3.8341 
 259   0.0000       0.145052         3.9471 
 260   0.0000       0.148333         4.0363 
 261   0.0000       0.153691         4.1821 
 262   0.0000       0.157298         4.2803 
 263   0.0000       0.163061         4.4371 
 264   0.0000       0.168369         4.5816 
 265   0.0000       0.170721         4.6455 
 266   0.0000       0.181381         4.9356 
 267   0.0000       0.187538         5.1032 
 268   0.0000       0.192657         5.2425 
 269   0.0000       0.202088         5.4991 
 270   0.0000       0.206665         5.6236 
 271   0.0000       0.214794         5.8448 
 272   0.0000       0.220882         6.0105 
 273   0.0000       0.226853         6.1730 
 274   0.0000       0.229943         6.2571 
 275   0.0000       0.236247         6.4286 
 276   0.0000       0.237748         6.4695 
 277   0.0000       0.239144         6.5074 
 278   0.0000       0.246514         6.7080 
 279   0.0000       0.250878         6.8267 
 280   0.0000       0.254413         6.9229 
 281   0.0000       0.261863         7.1256 
 282   0.0000       0.266637         7.2556 
 283   0.0000       0.271406         7.3853 
 284   0.0000       0.277526         7.5519 
 285   0.0000       0.281948         7.6722 
 286   0.0000       0.283206         7.7064 
 287   0.0000       0.284634         7.7453 
 288   0.0000       0.287350         7.8192 
 289   0.0000       0.289503         7.8778 
 290   0.0000       0.290841         7.9142 
 291   0.0000       0.293727         7.9927 
 292   0.0000       0.297443         8.0938 
 293   0.0000       0.300696         8.1824 
 294   0.0000       0.304751         8.2927 
 295   0.0000       0.307436         8.3658 
 296   0.0000       0.313314         8.5257 
 297   0.0000       0.319167         8.6850 
 298   0.0000       0.323273         8.7967 
 299   0.0000       0.328776         8.9465 
 300   0.0000       0.332892         9.0585 
 301   0.0000       0.340072         9.2538 
 302   0.0000       0.342239         9.3128 
 303   0.0000       0.344166         9.3652 
 304   0.0000       0.347692         9.4612 
 305   0.0000       0.349122         9.5001 
 306   0.0000       0.360641         9.8135 
 307   0.0000       0.363673         9.8960 
 308   0.0000       0.366264         9.9665 
 309   0.0000       0.372660        10.1406 
 310   0.0000       0.373325        10.1587 
 311   0.0000       0.374808        10.1990 
 312   0.0000       0.376266        10.2387 
 313   0.0000       0.380205        10.3459 
 314   0.0000       0.383101        10.4247 
 315   0.0000       0.388343        10.5674 
 316   0.0000       0.391417        10.6510 
 317   0.0000       0.394650        10.7390 
 318   0.0000       0.397851        10.8261 
 319   0.0000       0.400422        10.8960 
 320   0.0000       0.404980        11.0201 
 321   0.0000       0.411289        11.1917 
 322   0.0000       0.412535        11.2257 
 323   0.0000       0.413657        11.2562 
 324   0.0000       0.419038        11.4026 
 325   0.0000       0.420599        11.4451 
 326   0.0000       0.427403        11.6302 
 327   0.0000       0.431028        11.7289 
 328   0.0000       0.433799        11.8043 
 329   0.0000       0.440616        11.9898 
 330   0.0000       0.443718        12.0742 
 331   0.0000       0.450525        12.2594 
 332   0.0000       0.452271        12.3069 
 333   0.0000       0.453330        12.3357 
 334   0.0000       0.457819        12.4579 
 335   0.0000       0.459785        12.5114 
 336   0.0000       0.464461        12.6386 
 337   0.0000       0.466771        12.7015 
 338   0.0000       0.469249        12.7689 
 339   0.0000       0.474180        12.9031 
 340   0.0000       0.476451        12.9649 
 341   0.0000       0.481573        13.1043 
 342   0.0000       0.483329        13.1520 
 343   0.0000       0.486568        13.2402 
 344   0.0000       0.490921        13.3586 
 345   0.0000       0.494423        13.4539 
 346   0.0000       0.498398        13.5621 
 347   0.0000       0.499775        13.5996 
 348   0.0000       0.506778        13.7901 
 349   0.0000       0.509993        13.8776 
 350   0.0000       0.512267        13.9395 
 351   0.0000       0.513940        13.9850 
 352   0.0000       0.516080        14.0432 
 353   0.0000       0.523203        14.2371 
 354   0.0000       0.525744        14.3062 
 355   0.0000       0.532804        14.4983 
 356   0.0000       0.533693        14.5225 
 357   0.0000       0.538273        14.6471 
 358   0.0000       0.539619        14.6838 
 359   0.0000       0.544273        14.8104 
 360   0.0000       0.546804        14.8793 
 361   0.0000       0.549014        14.9394 
 362   0.0000       0.550194        14.9715 
 363   0.0000       0.550785        14.9876 
 364   0.0000       0.554958        15.1012 
 365   0.0000       0.556493        15.1430 
 366   0.0000       0.558126        15.1874 
 367   0.0000       0.559198        15.2166 
 368   0.0000       0.561465        15.2782 
 369   0.0000       0.563225        15.3261 
 370   0.0000       0.564629        15.3643 
 371   0.0000       0.570346        15.5199 
 372   0.0000       0.571106        15.5406 
 373   0.0000       0.572517        15.5790 
 374   0.0000       0.576082        15.6760 
 375   0.0000       0.578798        15.7499 
 376   0.0000       0.579336        15.7645 
 377   0.0000       0.579818        15.7776 
 378   0.0000       0.581399        15.8207 
 379   0.0000       0.583747        15.8846 
 380   0.0000       0.586385        15.9564 
 381   0.0000       0.592673        16.1274 
 382   0.0000       0.593628        16.1534 
 383   0.0000       0.597335        16.2543 
 384   0.0000       0.600314        16.3354 
 385   0.0000       0.602622        16.3982 
 386   0.0000       0.604220        16.4417 
 387   0.0000       0.606830        16.5127 
 388   0.0000       0.609763        16.5925 
 389   0.0000       0.613970        16.7070 
 390   0.0000       0.621475        16.9112 
 391   0.0000       0.625877        17.0310 
 392   0.0000       0.626711        17.0537 
 393   0.0000       0.630275        17.1506 
 394   0.0000       0.635611        17.2958 
 395   0.0000       0.637178        17.3385 
 396   0.0000       0.640972        17.4417 
 397   0.0000       0.645717        17.5708 
 398   0.0000       0.651185        17.7196 
 399   0.0000       0.655395        17.8342 
 400   0.0000       0.659893        17.9566 
 401   0.0000       0.663227        18.0473 
 402   0.0000       0.663648        18.0588 
 403   0.0000       0.668791        18.1987 
 404   0.0000       0.670057        18.2332 
 405   0.0000       0.675860        18.3911 
 406   0.0000       0.679934        18.5020 
 407   0.0000       0.687550        18.7092 
 408   0.0000       0.688909        18.7462 
 409   0.0000       0.691229        18.8093 
 410   0.0000       0.696811        18.9612 
 411   0.0000       0.697918        18.9913 
 412   0.0000       0.701155        19.0794 
 413   0.0000       0.702183        19.1074 
 414   0.0000       0.705609        19.2006 
 415   0.0000       0.707582        19.2543 
 416   0.0000       0.712218        19.3804 
 417   0.0000       0.715369        19.4662 
 418   0.0000       0.715722        19.4758 
 419   0.0000       0.717203        19.5161 
 420   0.0000       0.721241        19.6260 
 421   0.0000       0.722539        19.6613 
 422   0.0000       0.724517        19.7151 
 423   0.0000       0.730911        19.8891 
 424   0.0000       0.737246        20.0615 
 425   0.0000       0.741936        20.1891 
 426   0.0000       0.745281        20.2801 
 427   0.0000       0.747761        20.3476 
 428   0.0000       0.751403        20.4467 
 429   0.0000       0.758728        20.6460 
 430   0.0000       0.759335        20.6626 
 431   0.0000       0.770093        20.9553 
 432   0.0000       0.776935        21.1415 
 433   0.0000       0.782765        21.3001 
 434   0.0000       0.787064        21.4171 
 435   0.0000       0.789179        21.4747 
 436   0.0000       0.792404        21.5624 
 437   0.0000       0.801957        21.8224 
 438   0.0000       0.804852        21.9011 
 439   0.0000       0.812144        22.0996 
 440   0.0000       0.815478        22.1903 
 441   0.0000       0.817912        22.2565 
 442   0.0000       0.822534        22.3823 
 443   0.0000       0.827024        22.5045 
 444   0.0000       0.832757        22.6605 
 445   0.0000       0.837115        22.7791 
 446   0.0000       0.843273        22.9466 
 447   0.0000       0.844206        22.9720 
 448   0.0000       0.848118        23.0785 
 449   0.0000       0.850928        23.1549 
 450   0.0000       0.855780        23.2869 
 451   0.0000       0.859123        23.3779 
 452   0.0000       0.870812        23.6960 
 453   0.0000       0.874003        23.7828 
 454   0.0000       0.881664        23.9913 
 455   0.0000       0.887957        24.1625 
 456   0.0000       0.891085        24.2477 
 457   0.0000       0.907887        24.7049 
 458   0.0000       0.910653        24.7801 
 459   0.0000       0.916653        24.9434 
 460   0.0000       0.925870        25.1942 
 461   0.0000       0.930037        25.3076 
 462   0.0000       0.940168        25.5833 
 463   0.0000       0.941830        25.6285 
 464   0.0000       0.946695        25.7609 
 465   0.0000       0.949952        25.8495 
 466   0.0000       0.960154        26.1271 
 467   0.0000       0.968454        26.3530 
 468   0.0000       0.975257        26.5381 
 469   0.0000       0.978850        26.6359 
 470   0.0000       0.985776        26.8243 
 471   0.0000       0.998274        27.1644 
 472   0.0000       1.005227        27.3536 
 473   0.0000       1.011456        27.5231 
 474   0.0000       1.019796        27.7501 
 475   0.0000       1.026064        27.9206 
 476   0.0000       1.028656        27.9911 
 477   0.0000       1.031599        28.0712 
 478   0.0000       1.035814        28.1859 
 479   0.0000       1.045182        28.4408 
 480   0.0000       1.045317        28.4445 
 481   0.0000       1.053462        28.6662 
 482   0.0000       1.057039        28.7635 
 483   0.0000       1.062150        28.9026 
 484   0.0000       1.062643        28.9160 
 485   0.0000       1.074699        29.2441 
 486   0.0000       1.081026        29.4162 
 487   0.0000       1.087035        29.5797 
 488   0.0000       1.095591        29.8125 
 489   0.0000       1.106447        30.1079 
 490   0.0000       1.112278        30.2666 
 491   0.0000       1.120957        30.5028 
 492   0.0000       1.122765        30.5520 
 493   0.0000       1.128543        30.7092 
 494   0.0000       1.138075        30.9686 
 495   0.0000       1.141582        31.0640 
 496   0.0000       1.145220        31.1630 
 497   0.0000       1.152095        31.3501 
 498   0.0000       1.155232        31.4355 
 499   0.0000       1.160693        31.5841 
 500   0.0000       1.162673        31.6379 
 501   0.0000       1.165129        31.7048 
 502   0.0000       1.167669        31.7739 
 503   0.0000       1.172978        31.9184 
 504   0.0000       1.183405        32.2021 
 505   0.0000       1.189887        32.3785 
 506   0.0000       1.195691        32.5364 
 507   0.0000       1.206672        32.8352 
 508   0.0000       1.208825        32.8938 
 509   0.0000       1.208941        32.8970 
 510   0.0000       1.212887        33.0043 
 511   0.0000       1.222071        33.2542 
 512   0.0000       1.230200        33.4754 
 513   0.0000       1.235031        33.6069 
 514   0.0000       1.238336        33.6968 
 515   0.0000       1.247196        33.9379 
 516   0.0000       1.249181        33.9920 
 517   0.0000       1.264251        34.4020 
 518   0.0000       1.271782        34.6070 
 519   0.0000       1.276926        34.7469 
 520   0.0000       1.285238        34.9731 
 521   0.0000       1.290017        35.1032 
 522   0.0000       1.290825        35.1251 
 523   0.0000       1.299800        35.3694 
 524   0.0000       1.302455        35.4416 
 525   0.0000       1.308760        35.6132 
 526   0.0000       1.314562        35.7710 
 527   0.0000       1.317350        35.8469 
 528   0.0000       1.321796        35.9679 
 529   0.0000       1.323466        36.0134 
 530   0.0000       1.330218        36.1971 
 531   0.0000       1.336753        36.3749 
 532   0.0000       1.343189        36.5500 
 533   0.0000       1.349038        36.7092 
 534   0.0000       1.351776        36.7837 
 535   0.0000       1.355122        36.8747 
 536   0.0000       1.362363        37.0718 
 537   0.0000       1.367759        37.2186 
 538   0.0000       1.371852        37.3300 
 539   0.0000       1.376240        37.4494 
 540   0.0000       1.384277        37.6681 
 541   0.0000       1.395210        37.9656 
 542   0.0000       1.407031        38.2872 
 543   0.0000       1.413206        38.4553 
 544   0.0000       1.414604        38.4933 
 545   0.0000       1.418877        38.6096 
 546   0.0000       1.419906        38.6376 
 547   0.0000       1.421324        38.6762 
 548   0.0000       1.423693        38.7407 
 549   0.0000       1.427316        38.8392 
 550   0.0000       1.432340        38.9759 
 551   0.0000       1.432606        38.9832 
 552   0.0000       1.442160        39.2432 
 553   0.0000       1.451065        39.4855 
 554   0.0000       1.459845        39.7244 
 555   0.0000       1.462488        39.7963 
 556   0.0000       1.472866        40.0787 
 557   0.0000       1.477038        40.1923 
 558   0.0000       1.480402        40.2838 
 559   0.0000       1.485754        40.4294 
 560   0.0000       1.491408        40.5833 
 561   0.0000       1.492804        40.6213 
 562   0.0000       1.500436        40.8289 
 563   0.0000       1.504816        40.9481 
 564   0.0000       1.513229        41.1770 
 565   0.0000       1.516257        41.2595 
 566   0.0000       1.525277        41.5049 
 567   0.0000       1.527910        41.5765 
 568   0.0000       1.535653        41.7872 
 569   0.0000       1.538850        41.8742 
 570   0.0000       1.544381        42.0247 
 571   0.0000       1.545012        42.0419 
 572   0.0000       1.546761        42.0895 
 573   0.0000       1.547317        42.1046 
 574   0.0000       1.556379        42.3512 
 575   0.0000       1.559974        42.4490 
 576   0.0000       1.568203        42.6730 
 577   0.0000       1.568798        42.6892 
 578   0.0000       1.571611        42.7657 
 579   0.0000       1.582400        43.0593 
 580   0.0000       1.590036        43.2671 
 581   0.0000       1.593050        43.3491 
 582   0.0000       1.597929        43.4819 
 583   0.0000       1.602969        43.6190 
 584   0.0000       1.611825        43.8600 
 585   0.0000       1.614771        43.9401 
 586   0.0000       1.621429        44.1213 
[...]
 93:    511.40   0.013330   67.37  0.008134  ( 0.049833  0.052376 -0.053924)
 94:    534.23   0.001873    9.46  0.001094  (-0.031772  0.001277  0.009105)
 95:    535.18   0.001906    9.63  0.001111  (-0.008117  0.022774 -0.022949)
 96:    541.38   0.001838    9.29  0.001060  ( 0.015229  0.012037  0.026132)
 97:    549.99   0.010115   51.12  0.005739  ( 0.010504 -0.048973  0.056836)
 98:    555.67   0.012990   65.64  0.007295  ( 0.033569  0.075926 -0.020085)
 99:    559.26   0.009842   49.74  0.005492  (-0.038275  0.058652  0.024227)
100:    581.76   0.053216  268.93  0.028546  (-0.001470 -0.126893 -0.111543)
101:    584.98   0.036345  183.67  0.019389  (-0.133368  0.014358  0.037360)
102:    592.69   0.057964  292.93  0.030519  (-0.110208  0.011344  0.135074)
103:    627.64   0.064694  326.94  0.032166  (-0.085377  0.138097 -0.076194)
104:    721.79   0.000351    1.77  0.000152  ( 0.000600 -0.001153  0.012244)
105:    724.34   0.000430    2.17  0.000185  (-0.001051  0.003475  0.013112)
106:    727.76   0.000094    0.47  0.000040  ( 0.004343 -0.004505 -0.001060)
107:    805.57   0.023995  121.26  0.009295  (-0.027436 -0.060161  0.070165)
108:    940.04   0.162268  820.03  0.053868  ( 0.230668  0.019070 -0.017204)
109:    946.50   0.118432  598.51  0.039047  ( 0.011380  0.164040  0.109584)
110:    968.98   0.048250  243.84  0.015539  ( 0.042018 -0.111168 -0.037621)
111:    969.67   0.003989   20.16  0.001284  ( 0.016525 -0.026550 -0.017486)
112:    973.48   0.000180    0.91  0.000058  ( 0.004916 -0.005802  0.000180)
113:    973.94   0.000111    0.56  0.000036  (-0.005923  0.000465  0.000512)
114:    979.94   0.000108    0.54  0.000034  (-0.004101  0.004173 -0.000164)
115:    985.47   0.000811    4.10  0.000257  ( 0.002803 -0.006779 -0.014251)
116:    996.41   0.002686   13.57  0.000841  (-0.017516 -0.016733 -0.015950)
117:    996.74   0.003746   18.93  0.001173  (-0.024577  0.017284 -0.016428)
118:    998.46   0.003214   16.24  0.001005  ( 0.015013 -0.027431  0.005173)
119:    998.52   0.002988   15.10  0.000934  ( 0.018368  0.006234 -0.023612)
120:    999.65   0.003091   15.62  0.000965  ( 0.015824 -0.000760 -0.026717)
121:   1000.70   0.005254   26.55  0.001639  ( 0.002626  0.020182 -0.034991)
122:   1001.09   0.002993   15.13  0.000933  ( 0.015706  0.024188  0.010064)
123:   1002.00   0.007526   38.03  0.002344  (-0.031006 -0.008592  0.036176)
124:   1003.50   0.003350   16.93  0.001042  (-0.027496  0.016427 -0.003978)
125:   1005.24   0.005075   25.65  0.001576  (-0.019505 -0.030429 -0.016407)
126:   1073.78   0.043140  218.01  0.012537  (-0.066440 -0.027183 -0.085931)
127:   1087.39   0.072635  367.07  0.020845  ( 0.105917  0.077799 -0.059782)
128:   1093.11   0.028959  146.35  0.008267  (-0.063354  0.062094 -0.019951)
129:   1094.63   0.077218  390.23  0.022014  ( 0.066983 -0.081068  0.104666)
130:   1097.93   0.014184   71.68  0.004031  ( 0.051759  0.018947 -0.031521)
131:   1110.06   0.145615  735.88  0.040936  (-0.004039 -0.177396 -0.097211)
132:   1110.46   0.115020  581.27  0.032323  (-0.107424 -0.038227 -0.139004)
133:   1117.57   0.058282  294.53  0.016274  (-0.077203 -0.063777  0.079033)
134:   1125.47   0.133414  674.22  0.036992  (-0.087497  0.067352 -0.157481)
135:   1132.13   0.046234  233.65  0.012744  ( 0.004289 -0.107321  0.034753)
136:   1162.98   0.059124  298.79  0.015865  ( 0.018903  0.123754  0.013873)
137:   1169.29   0.072593  366.86  0.019374  ( 0.101695 -0.042543  0.084982)
138:   1261.09   0.084338  426.21  0.020870  ( 0.133610  0.033476 -0.043561)
139:   1271.79   0.097276  491.59  0.023869  (-0.031381  0.122503 -0.088753)
140:   1283.03   0.136194  688.27  0.033126  (-0.091842 -0.113793  0.108360)
141:   1336.36   0.002444   12.35  0.000571  ( 0.011937  0.019823  0.005935)
142:   1336.82   0.002574   13.01  0.000601  ( 0.005891  0.006550 -0.022876)
143:   1337.26   0.001774    8.97  0.000414  (-0.013842  0.014897 -0.000756)
144:   1339.33   0.001737    8.78  0.000405  ( 0.011221  0.010290  0.013154)
145:   1342.20   0.002093   10.58  0.000487  ( 0.016330 -0.013851  0.005312)
146:   1371.84   0.004912   24.82  0.001117  (-0.016509 -0.023530 -0.017062)
147:   1372.59   0.005018   25.36  0.001141  (-0.023466  0.022582 -0.008965)
148:   1373.84   0.004693   23.71  0.001066  ( 0.017322  0.008350 -0.026385)
149:   1374.38   0.004405   22.26  0.001000  ( 0.008237 -0.020974  0.022188)
150:   1374.99   0.004801   24.26  0.001090  (-0.022005 -0.015135  0.019400)
151:   1375.51   0.004962   25.08  0.001126  ( 0.027841 -0.014258  0.012137)
152:   1376.84   0.004600   23.25  0.001043  (-0.022102 -0.012851  0.019724)
153:   1377.00   0.004673   23.62  0.001059  ( 0.004894  0.022529  0.022968)
154:   1379.13   0.004200   21.22  0.000950  (-0.029042  0.000632  0.010317)
155:   1381.15   0.004392   22.20  0.000992  ( 0.006994  0.023683  0.019561)
156:   2324.59   0.083142  420.17  0.011161  ( 0.053893  0.020635 -0.088493)
157:   2343.10   0.076115  384.65  0.010137  (-0.035124 -0.078214 -0.052783)
158:   2343.90   0.086523  437.25  0.011520  (-0.074284  0.068936 -0.035346)
159:   2345.16   0.012345   62.39  0.001643  ( 0.023543  0.026238  0.019999)
160:   2351.22   0.001332    6.73  0.000177  ( 0.006981 -0.009514 -0.006123)
161:   2976.63   0.010841   54.79  0.001137  (-0.010235 -0.002966 -0.031985)
162:   2983.30   0.008587   43.40  0.000898  ( 0.003306 -0.021997  0.020087)
163:   2991.43   0.005961   30.12  0.000622  (-0.013580 -0.005330  0.020224)
164:   2992.48   0.004170   21.07  0.000435  (-0.005182 -0.017001 -0.010907)
165:   2993.77   0.004072   20.58  0.000425  ( 0.014325 -0.011422  0.009426)
166:   3061.15   0.011251   56.86  0.001147  ( 0.001717 -0.018569  0.028270)
167:   3068.22   0.009501   48.01  0.000966  ( 0.018083  0.011021 -0.022757)
168:   3076.92   0.001856    9.38  0.000188  ( 0.010822  0.002269  0.008125)
169:   3078.75   0.001758    8.88  0.000178  ( 0.012834 -0.003668 -0.000013)
170:   3079.59   0.001800    9.10  0.000182  (-0.003602  0.012974  0.001061)
171:   3080.07   0.001737    8.78  0.000176  (-0.008746 -0.002963  0.009525)
172:   3080.31   0.001638    8.28  0.000166  ( 0.002243  0.006158 -0.011092)
173:   3080.67   0.001378    6.97  0.000140  (-0.011409  0.002509  0.001779)
174:   3081.40   0.001651    8.34  0.000167  ( 0.003702  0.010462  0.006634)
175:   3085.05   0.001697    8.57  0.000172  ( 0.006619  0.010554  0.004053)
176:   3758.09   0.059420  300.28  0.004934  ( 0.031983 -0.062173  0.006761)

* The epsilon (eps) is given for a Dirac delta lineshape.
** The dipole moment derivative (T) already includes vibrational overlap.

The first frequency considered to be a vibration is 6
The total number of vibrations considered is 171


--------------------------
THERMOCHEMISTRY AT 298.15K
--------------------------

Temperature         ... 298.15 K
Pressure            ... 1.00 atm
Total Mass          ... 786.27 AMU

Throughout the following assumptions are being made:
  (1) The electronic state is orbitally nondegenerate
      but the spin degeneracy is treated
  (2) There are no thermally accessible electronically excited states
  (3) Hindered rotations indicated by low frequency modes are not
      treated as such but are treated as vibrations and this may
      cause some error
  (4) All equations used are the standard statistical mechanics
      equations for an ideal gas
  (5) All vibrations are strictly harmonic

freq.       9.64  E(vib)   ...       0.58 
freq.      17.21  E(vib)   ...       0.57 
freq.      17.35  E(vib)   ...       0.57 
freq.      19.13  E(vib)   ...       0.57 
freq.      21.33  E(vib)   ...       0.56 
freq.      26.51  E(vib)   ...       0.56 
freq.      27.19  E(vib)   ...       0.55 
freq.      29.00  E(vib)   ...       0.55 
freq.      31.17  E(vib)   ...       0.55 
freq.      32.69  E(vib)   ...       0.55 
freq.      35.81  E(vib)   ...       0.54 
freq.      37.36  E(vib)   ...       0.54 
freq.      39.34  E(vib)   ...       0.54 
freq.      40.67  E(vib)   ...       0.54 
freq.      43.04  E(vib)   ...       0.53 
freq.      43.55  E(vib)   ...       0.53 
freq.      44.63  E(vib)   ...       0.53 
freq.      46.67  E(vib)   ...       0.53 
freq.      50.08  E(vib)   ...       0.52 
freq.      55.31  E(vib)   ...       0.52 
freq.      56.85  E(vib)   ...       0.51 
freq.      60.85  E(vib)   ...       0.51 
freq.      68.05  E(vib)   ...       0.50 
freq.      71.14  E(vib)   ...       0.50 
freq.      82.93  E(vib)   ...       0.48 
freq.      85.00  E(vib)   ...       0.48 
freq.      90.70  E(vib)   ...       0.47 
freq.      94.76  E(vib)   ...       0.47 
freq.      97.08  E(vib)   ...       0.46 
freq.     104.70  E(vib)   ...       0.46 
freq.     109.46  E(vib)   ...       0.45 
freq.     112.05  E(vib)   ...       0.45 
freq.     129.14  E(vib)   ...       0.43 
freq.     131.72  E(vib)   ...       0.42 
freq.     132.83  E(vib)   ...       0.42 
freq.     139.93  E(vib)   ...       0.41 
freq.     147.46  E(vib)   ...       0.41 
freq.     154.94  E(vib)   ...       0.40 
freq.     162.67  E(vib)   ...       0.39 
freq.     182.35  E(vib)   ...       0.37 
freq.     183.17  E(vib)   ...       0.37 
freq.     187.26  E(vib)   ...       0.36 
freq.     200.74  E(vib)   ...       0.35 
freq.     209.65  E(vib)   ...       0.34 
freq.     214.24  E(vib)   ...       0.34 
freq.     224.86  E(vib)   ...       0.33 
freq.     230.69  E(vib)   ...       0.32 
freq.     234.01  E(vib)   ...       0.32 
freq.     235.44  E(vib)   ...       0.32 
freq.     242.13  E(vib)   ...       0.31 
freq.     248.91  E(vib)   ...       0.31 
freq.     250.87  E(vib)   ...       0.30 
freq.     253.91  E(vib)   ...       0.30 
freq.     256.13  E(vib)   ...       0.30 
freq.     260.43  E(vib)   ...       0.30 
freq.     282.79  E(vib)   ...       0.28 
freq.     286.37  E(vib)   ...       0.27 
freq.     287.82  E(vib)   ...       0.27 
freq.     292.56  E(vib)   ...       0.27 
freq.     296.49  E(vib)   ...       0.27 
freq.     298.47  E(vib)   ...       0.26 
freq.     308.32  E(vib)   ...       0.26 
freq.     311.90  E(vib)   ...       0.25 
freq.     319.96  E(vib)   ...       0.25 
freq.     321.44  E(vib)   ...       0.25 
freq.     322.27  E(vib)   ...       0.25 
freq.     347.48  E(vib)   ...       0.23 
freq.     356.33  E(vib)   ...       0.22 
freq.     361.09  E(vib)   ...       0.22 
freq.     374.85  E(vib)   ...       0.21 
freq.     387.08  E(vib)   ...       0.20 
freq.     390.29  E(vib)   ...       0.20 
freq.     401.07  E(vib)   ...       0.19 
freq.     417.42  E(vib)   ...       0.18 
freq.     421.92  E(vib)   ...       0.18 
freq.     430.90  E(vib)   ...       0.18 
freq.     439.09  E(vib)   ...       0.17 
freq.     441.56  E(vib)   ...       0.17 
freq.     443.67  E(vib)   ...       0.17 
freq.     463.26  E(vib)   ...       0.16 
freq.     469.09  E(vib)   ...       0.16 
freq.     471.51  E(vib)   ...       0.15 
freq.     474.15  E(vib)   ...       0.15 
freq.     478.75  E(vib)   ...       0.15 
freq.     479.50  E(vib)   ...       0.15 
freq.     488.12  E(vib)   ...       0.15 
freq.     492.73  E(vib)   ...       0.14 
freq.     511.40  E(vib)   ...       0.14 
freq.     534.23  E(vib)   ...       0.13 
freq.     535.18  E(vib)   ...       0.13 
freq.     541.38  E(vib)   ...       0.12 
freq.     549.99  E(vib)   ...       0.12 
freq.     555.67  E(vib)   ...       0.12 
freq.     559.26  E(vib)   ...       0.12 
freq.     581.76  E(vib)   ...       0.11 
freq.     584.98  E(vib)   ...       0.11 
freq.     592.69  E(vib)   ...       0.10 
freq.     627.64  E(vib)   ...       0.09 
freq.     721.79  E(vib)   ...       0.07 
freq.     724.34  E(vib)   ...       0.06 
freq.     727.76  E(vib)   ...       0.06 
freq.     805.57  E(vib)   ...       0.05 
freq.     940.04  E(vib)   ...       0.03 
freq.     946.50  E(vib)   ...       0.03 
freq.     968.98  E(vib)   ...       0.03 
freq.     969.67  E(vib)   ...       0.03 
freq.     973.48  E(vib)   ...       0.03 
freq.     973.94  E(vib)   ...       0.03 
freq.     979.94  E(vib)   ...       0.02 
freq.     985.47  E(vib)   ...       0.02 
freq.     996.41  E(vib)   ...       0.02 
freq.     996.74  E(vib)   ...       0.02 
freq.     998.46  E(vib)   ...       0.02 
freq.     998.52  E(vib)   ...       0.02 
freq.     999.65  E(vib)   ...       0.02 
freq.    1000.70  E(vib)   ...       0.02 
freq.    1001.09  E(vib)   ...       0.02 
freq.    1002.00  E(vib)   ...       0.02 
freq.    1003.50  E(vib)   ...       0.02 
freq.    1005.24  E(vib)   ...       0.02 
freq.    1073.78  E(vib)   ...       0.02 
freq.    1087.39  E(vib)   ...       0.02 
freq.    1093.11  E(vib)   ...       0.02 
freq.    1094.63  E(vib)   ...       0.02 
freq.    1097.93  E(vib)   ...       0.02 
freq.    1110.06  E(vib)   ...       0.02 
freq.    1110.46  E(vib)   ...       0.02 
freq.    1117.57  E(vib)   ...       0.01 
freq.    1125.47  E(vib)   ...       0.01 
freq.    1132.13  E(vib)   ...       0.01 
freq.    1162.98  E(vib)   ...       0.01 
freq.    1169.29  E(vib)   ...       0.01 
freq.    1261.09  E(vib)   ...       0.01 
freq.    1271.79  E(vib)   ...       0.01 
freq.    1283.03  E(vib)   ...       0.01 
freq.    1336.36  E(vib)   ...       0.01 
freq.    1336.82  E(vib)   ...       0.01 
freq.    1337.26  E(vib)   ...       0.01 
freq.    1339.33  E(vib)   ...       0.01 
freq.    1342.20  E(vib)   ...       0.01 
freq.    1371.84  E(vib)   ...       0.01 
freq.    1372.59  E(vib)   ...       0.01 
freq.    1373.84  E(vib)   ...       0.01 
freq.    1374.38  E(vib)   ...       0.01 
freq.    1374.99  E(vib)   ...       0.01 
freq.    1375.51  E(vib)   ...       0.01 
freq.    1376.84  E(vib)   ...       0.01 
freq.    1377.00  E(vib)   ...       0.01 
freq.    1379.13  E(vib)   ...       0.01 
freq.    1381.15  E(vib)   ...       0.01 
freq.    2324.59  E(vib)   ...       0.00 
freq.    2343.10  E(vib)   ...       0.00 
freq.    2343.90  E(vib)   ...       0.00 
freq.    2345.16  E(vib)   ...       0.00 
freq.    2351.22  E(vib)   ...       0.00 
freq.    2976.63  E(vib)   ...       0.00 
freq.    2983.30  E(vib)   ...       0.00 
freq.    2991.43  E(vib)   ...       0.00 
freq.    2992.48  E(vib)   ...       0.00 
freq.    2993.77  E(vib)   ...       0.00 
freq.    3061.15  E(vib)   ...       0.00 
freq.    3068.22  E(vib)   ...       0.00 
freq.    3076.92  E(vib)   ...       0.00 
freq.    3078.75  E(vib)   ...       0.00 
freq.    3079.59  E(vib)   ...       0.00 
freq.    3080.07  E(vib)   ...       0.00 
freq.    3080.31  E(vib)   ...       0.00 
freq.    3080.67  E(vib)   ...       0.00 
freq.    3081.40  E(vib)   ...       0.00 
freq.    3085.05  E(vib)   ...       0.00 
freq.    3758.09  E(vib)   ...       0.00 

------------
INNER ENERGY
------------

The inner energy is: U= E(el) + E(ZPE) + E(vib) + E(rot) + E(trans)
    E(el)   - is the total energy from the electronic structure calculation
              = E(kin-el) + E(nuc-el) + E(el-el) + E(nuc-nuc)
    E(ZPE)  - the the zero temperature vibrational energy from the frequency calculation
    E(vib)  - the the finite temperature correction to E(ZPE) due to population
              of excited vibrational states
    E(rot)  - is the rotational thermal energy
    E(trans)- is the translational thermal energy

Summary of contributions to the inner energy U:
Electronic energy                ...  -5725.08110335 Eh
Zero point energy                ...      0.32892800 Eh     206.40 kcal/mol
Thermal vibrational correction   ...      0.05361765 Eh      33.65 kcal/mol
Thermal rotational correction    ...      0.00141627 Eh       0.89 kcal/mol
Thermal translational correction ...      0.00141627 Eh       0.89 kcal/mol
-----------------------------------------------------------------------
Total thermal energy                  -5724.69572515 Eh


Summary of corrections to the electronic energy:
(perhaps to be used in another calculation)
Total thermal correction                  0.05645020 Eh      35.42 kcal/mol
Non-thermal (ZPE) correction              0.32892800 Eh     206.40 kcal/mol
-----------------------------------------------------------------------
Total correction                          0.38537820 Eh     241.83 kcal/mol


--------
ENTHALPY
--------

The enthalpy is H = U + kB*T
                kB is Boltzmann's constant
Total free energy                 ...  -5724.69572515 Eh 
Thermal Enthalpy correction       ...      0.00094421 Eh       0.59 kcal/mol
-----------------------------------------------------------------------
Total Enthalpy                    ...  -5724.69478094 Eh


Note: Only C1 symmetry has been detected, increase convergence thresholds 
      if your molecule has a higher symmetry. Symmetry factor of 1.0 is   
      used for the rotational entropy correction. 
 

Note: Rotational entropy computed according to Herzberg 
Infrared and Raman Spectra, Chapter V,1, Van Nostrand Reinhold, 1945 
Point Group:  C1, Symmetry Number:   1  
Rotational constants in cm-1:     0.002247     0.001792     0.001700 

Vibrational entropy computed according to the QRRHO of S. Grimme
Chem.Eur.J. 2012 18 9955


-------
ENTROPY
-------

The entropy contributions are T*S = T*(S(el)+S(vib)+S(rot)+S(trans))
     S(el)   - electronic entropy
     S(vib)  - vibrational entropy
     S(rot)  - rotational entropy
     S(trans)- translational entropy
The entropies will be listed as multiplied by the temperature to get
units of energy

Electronic entropy                ...      0.00103729 Eh      0.65 kcal/mol
Vibrational entropy               ...      0.10157569 Eh     63.74 kcal/mol
Rotational entropy                ...      0.01838604 Eh     11.54 kcal/mol
Translational entropy             ...      0.02179177 Eh     13.67 kcal/mol
-----------------------------------------------------------------------
Final entropy term                ...      0.14279079 Eh     89.60 kcal/mol

In case the symmetry of your molecule has not been determined correctly
or in case you have a reason to use a different symmetry number we print 
out the resulting rotational entropy values for sn=1,12 :
 --------------------------------------------------------
|  sn= 1 | S(rot)=       0.01838604 Eh     11.54 kcal/mol|
|  sn= 2 | S(rot)=       0.01773158 Eh     11.13 kcal/mol|
|  sn= 3 | S(rot)=       0.01734875 Eh     10.89 kcal/mol|
|  sn= 4 | S(rot)=       0.01707713 Eh     10.72 kcal/mol|
|  sn= 5 | S(rot)=       0.01686644 Eh     10.58 kcal/mol|
|  sn= 6 | S(rot)=       0.01669429 Eh     10.48 kcal/mol|
|  sn= 7 | S(rot)=       0.01654875 Eh     10.38 kcal/mol|
|  sn= 8 | S(rot)=       0.01642267 Eh     10.31 kcal/mol|
|  sn= 9 | S(rot)=       0.01631146 Eh     10.24 kcal/mol|
|  sn=10 | S(rot)=       0.01621198 Eh     10.17 kcal/mol|
|  sn=11 | S(rot)=       0.01612199 Eh     10.12 kcal/mol|
|  sn=12 | S(rot)=       0.01603984 Eh     10.07 kcal/mol|
 --------------------------------------------------------


-------------------
GIBBS FREE ENERGY
-------------------

The Gibbs free energy is G = H - T*S

Total enthalpy                    ...  -5724.69478094 Eh 
Total entropy correction          ...     -0.14279079 Eh    -89.60 kcal/mol
-----------------------------------------------------------------------
Final Gibbs free energy         ...  -5724.83757173 Eh

For completeness - the Gibbs free energy minus the electronic energy
G-E(el)                           ...      0.24353162 Eh    152.82 kcal/mol



Timings for individual modules:

Sum of individual times         ...   386609.692 sec (=6443.495 min)
GTO integral calculation        ...       27.469 sec (=   0.458 min)   0.0 %
SCF iterations                  ...     1824.023 sec (=  30.400 min)   0.5 %
SCF Gradient evaluation         ...      126.525 sec (=   2.109 min)   0.0 %
Numerical frequency calculation ...   384631.675 sec (=6410.528 min)  99.5 %
                             ****ORCA TERMINATED NORMALLY****
TOTAL RUN TIME: 4 days 11 hours 10 minutes 27 seconds 505 msec
