
                                 *****************
                                 * O   R   C   A *
                                 *****************

           --- An Ab Initio, DFT and Semiempirical electronic structure package ---

                  #######################################################
                  #                        -***-                        #
                  #          Department of theory and spectroscopy      #
                  #               Directorship: Frank Neese             #
                  #        Max Planck Institute fuer Kohlenforschung    #
                  #                Kaiser Wilhelm Platz 1               #
                  #                 D-45470 Muelheim/Ruhr               #
                  #                      Germany                        #
                  #                                                     #
                  #                  All rights reserved                #
                  #                        -***-                        #
                  #######################################################


                         Program Version 4.2.1 -  RELEASE  -


 With contributions from (in alphabetic order):
   Daniel Aravena         : Magnetic Suceptibility
   Michael Atanasov       : Ab Initio Ligand Field Theory (pilot matlab implementation)
   Alexander A. Auer      : GIAO ZORA, VPT2
   Ute Becker             : Parallelization
   Giovanni Bistoni       : ED, misc. LED, open-shell LED, HFLD
   Martin Brehm           : Molecular dynamics
   Dmytro Bykov           : SCF Hessian
   Vijay G. Chilkuri      : MRCI spin determinant printing, contributions to CSF-ICE
   Dipayan Datta          : RHF DLPNO-CCSD density
   Achintya Kumar Dutta   : EOM-CC, STEOM-CC
   Dmitry Ganyushin       : Spin-Orbit,Spin-Spin,Magnetic field MRCI
   Miquel Garcia          : C-PCM Hessian, Gaussian charge scheme
   Yang Guo               : DLPNO-NEVPT2, CIM, IAO-localization
   Andreas Hansen         : Spin unrestricted coupled pair/coupled cluster methods
   Benjamin Helmich-Paris : CASSCF linear response (MC-RPA)
   Lee Huntington         : MR-EOM, pCC
   Robert Izsak           : Overlap fitted RIJCOSX, COSX-SCS-MP3, EOM
   Christian Kollmar      : KDIIS, OOCD, Brueckner-CCSD(T), CCSD density
   Simone Kossmann        : Meta GGA functionals, TD-DFT gradient, OOMP2, MP2 Hessian
   Martin Krupicka        : AUTO-CI
   Lucas Lang             : DCDCAS
   Dagmar Lenk            : GEPOL surface, SMD
   Dimitrios Liakos       : Extrapolation schemes; Compound Job, initial MDCI parallelization
   Dimitrios Manganas     : Further ROCIS development; embedding schemes
   Dimitrios Pantazis     : SARC Basis sets
   Taras Petrenko         : DFT Hessian,TD-DFT gradient, ASA, ECA, R-Raman, ABS, FL, XAS/XES, NRVS
   Peter Pinski           : DLPNO-MP2, DLPNO-MP2 Gradient
   Christoph Reimann      : Effective Core Potentials
   Marius Retegan         : Local ZFS, SOC
   Christoph Riplinger    : Optimizer, TS searches, QM/MM, DLPNO-CCSD(T), (RO)-DLPNO pert. Triples
   Tobias Risthaus        : Range-separated hybrids, TD-DFT gradient, RPA, STAB
   Michael Roemelt        : Original ROCIS implementation
   Masaaki Saitow         : Open-shell DLPNO-CCSD energy and density
   Barbara Sandhoefer     : DKH picture change effects
   Avijit Sen             : IP-ROCIS
   Kantharuban Sivalingam : CASSCF convergence, NEVPT2, FIC-MRCI
   Bernardo de Souza      : ESD, SOC TD-DFT
   Georgi Stoychev        : AutoAux, RI-MP2 NMR
   Willem Van den Heuvel  : Paramagnetic NMR
   Boris Wezisla          : Elementary symmetry handling
   Frank Wennmohs         : Technical directorship


 We gratefully acknowledge several colleagues who have allowed us to
 interface, adapt or use parts of their codes:
   Stefan Grimme, W. Hujo, H. Kruse,             : VdW corrections, initial TS optimization,
                  C. Bannwarth                     DFT functionals, gCP, sTDA/sTD-DF
   Ed Valeev, F. Pavosevic, A. Kumar             : LibInt (2-el integral package), F12 methods
   Garnet Chan, S. Sharma, J. Yang, R. Olivares  : DMRG
   Ulf Ekstrom                                   : XCFun DFT Library
   Mihaly Kallay                                 : mrcc  (arbitrary order and MRCC methods)
   Andreas Klamt, Michael Diedenhofen            : otool_cosmo (COSMO solvation model)
   Jiri Pittner, Ondrej Demel                    : Mk-CCSD
   Frank Weinhold                                : gennbo (NPA and NBO analysis)
   Christopher J. Cramer and Donald G. Truhlar   : smd solvation model
   Lars Goerigk                                  : TD-DFT with DH, B97 family of functionals
   V. Asgeirsson, H. Jonsson                     : NEB implementation
   FAccTs GmbH                                   : IRC, NEB, NEB-TS, Multilevel, MM, QM/MM, CI optimization
   S Lehtola, MJT Oliveira, MAL Marques          : LibXC Library


 Your calculation uses the libint2 library for the computation of 2-el integrals
 For citations please refer to: http://libint.valeyev.net

 Your ORCA version has been built with support for libXC version: 4.2.3
 For citations please refer to: https://tddft.org/programs/libxc/

 This ORCA versions uses:
   CBLAS   interface :  Fast vector & matrix operations
   LAPACKE interface :  Fast linear algebra routines
   SCALAPACK package :  Parallel linear algebra routines


----- Orbital basis set information -----
Your calculation utilizes the basis: cc-pVTZ 
       H, B-Ne : Obtained from the ccRepo (grant-hill.group.shef.ac.uk/ccrepo) Feb. 2017
                 T. H. Dunning, Jr., J. Chem. Phys. 90, 1007 (1989)
            He : Obtained from the ccRepo (grant-hill.group.shef.ac.uk/ccrepo) Feb. 2017
                 D. E. Woon, T. H. Dunning, Jr., J. Chem. Phys. 100, 2975 (1994)
  Li-Be, Na-Mg : Obtained from the ccRepo (grant-hill.group.shef.ac.uk/ccrepo) Feb. 2017
                 B. P. Prascher, D. E. Woon, K. A. Peterson, T. H. Dunning, Jr., A. K. Wilson, Theor. Chem. Acc. 128, 69 (2011)
         Al-Ar : Obtained from the ccRepo (grant-hill.group.shef.ac.uk/ccrepo) Feb. 2017
                 D. E. Woon, T. H. Dunning, Jr., J. Chem. Phys. 98, 1358 (1993)
            Ca : Obtained from the Peterson Research Group Website (tyr0.chem.wsu.edu/~kipeters) Feb. 2017
                 J. Koput, K. A. Peterson, J. Phys. Chem. 106, 9595 (2002)
         Sc-Zn : Obtained from the ccRepo (grant-hill.group.shef.ac.uk/ccrepo) Feb. 2017
                 N. B. Balabanov, K. A. Peterson, J. Chem. Phys. 123, 064107 (2005)
                 N. B. Balabanov, K. A. Peterson, J. Chem. Phys. 125, 074110 (2006)
         Ga-Kr : Obtained from the ccRepo (grant-hill.group.shef.ac.uk/ccrepo) Feb. 2017
                 A. K. Wilson, D. E. Woon, K. A. Peterson, T. H. Dunning, Jr., J. Chem. Phys. 110, 7667 (1999)
             Y : Obtained from the ccRepo (grant-hill.group.shef.ac.uk/ccrepo) Feb. 2017
                 K. A. Peterson, D. Figgen, M. Dolg, H. Stoll, J. Chem. Phys. 126, 124101 (2007)
        Ag, Au : Obtained from the Peterson Research Group Website (tyr0.chem.wsu.edu/~kipeters) Feb. 2017
                 K. A. Peterson, C. Puzzarini, Theor. Chem. Acc. 114, 283 (2005)

================================================================================
                                        WARNINGS
                       Please study these warnings very carefully!
================================================================================


WARNING: Geometry Optimization
  ===> : Switching off AutoStart
         For restart on a previous wavefunction, please use MOREAD

INFO   : the flag for use of LIBINT has been found!

================================================================================
                                       INPUT FILE
================================================================================
NAME = IBU0.inp
|  1> !b3lyp cc-pVTZ opt
|  2> %scf
|  3> maxiter 111
|  4> end
|  5> %maxcore 2000
|  6> %pal nprocs 20 end
|  7> *xyz 0 1
|  8> O -4.446 -1.003 0.411
|  9> O -2.401 -1.911 0.053
| 10> C 3.902 -0.441 0.036
| 11> C 3.149 0.819 -0.431
| 12> C 1.653 0.739 -0.247
| 13> C -1.095 0.594 0.090
| 14> C -2.573 0.515 0.272
| 15> C 3.608 -0.776 1.500
| 16> C 3.524 -1.630 -0.851
| 17> C 0.869 0.228 -1.270
| 18> C 1.090 1.179 0.941
| 19> C -0.513 0.155 -1.100
| 20> C -0.293 1.106 1.110
| 21> C -3.374 1.349 -0.749
| 22> C -3.100 -0.923 0.233
| 23> H 4.978 -0.253 -0.073
| 24> H 3.379 1.024 -1.485
| 25> H 3.530 1.691 0.118
| 26> H -2.824 0.890 1.274
| 27> H 2.579 -1.117 1.657
| 28> H 3.796 0.088 2.146
| 29> H 4.266 -1.585 1.837
| 30> H 4.178 -2.481 -0.630
| 31> H 2.496 -1.969 -0.686
| 32> H 3.649 -1.389 -1.911
| 33> H 1.308 -0.110 -2.204
| 34> H 1.702 1.585 1.740
| 35> H -1.121 -0.245 -1.907
| 36> H -0.729 1.453 2.043
| 37> H -3.001 2.379 -0.784
| 38> H -3.303 0.929 -1.758
| 39> H -4.436 1.389 -0.483
| 40> H -4.764 -1.931 0.378
| 41> *
| 42> 
| 43> 
| 44>                          ****END OF INPUT****
================================================================================

                       *****************************
                       * Geometry Optimization Run *
                       *****************************

Geometry optimization settings:
Update method            Update   .... BFGS
Choice of coordinates    CoordSys .... Z-matrix Internals
Initial Hessian          InHess   .... Almoef's Model

Convergence Tolerances:
Energy Change            TolE     ....  5.0000e-06 Eh
Max. Gradient            TolMAXG  ....  3.0000e-04 Eh/bohr
RMS Gradient             TolRMSG  ....  1.0000e-04 Eh/bohr
Max. Displacement        TolMAXD  ....  4.0000e-03 bohr
RMS Displacement         TolRMSD  ....  2.0000e-03 bohr
Strict Convergence                ....  False
------------------------------------------------------------------------------
                        ORCA OPTIMIZATION COORDINATE SETUP
------------------------------------------------------------------------------

The optimization will be done in new redundant internal coordinates
Making redundant internal coordinates   ...  (new redundants) done
Evaluating the initial hessian          ...  (Almloef) done
Evaluating the coordinates              ...  done
Calculating the B-matrix                .... done
Calculating the G-matrix                .... done
Diagonalizing the G-matrix              .... done
Small eigenvalue found = 7.143e-03
Small eigenvalue found = 1.126e-02
Small eigenvalue found = 2.085e-02
Small eigenvalue found = 2.352e-02
The first mode is                       ....   78
The number of degrees of freedom        ....   93

    -----------------------------------------------------------------
                    Redundant Internal Coordinates


    -----------------------------------------------------------------
         Definition                    Initial Value    Approx d2E/dq
    -----------------------------------------------------------------
      1. B(C   3,C   2)                  1.5404         0.359629   
      2. B(C   4,C   3)                  1.5094         0.402951   
      3. B(C   6,C   5)                  1.4913         0.430714   
      4. B(C   7,C   2)                  1.5303         0.373101   
      5. B(C   8,C   2)                  1.5308         0.372467   
      6. B(C   9,C   4)                  1.3865         0.632946   
      7. B(C  10,C   4)                  1.3863         0.633275   
      8. B(C  11,C   5)                  1.3955         0.612199   
      9. B(C  11,C   9)                  1.3943         0.614939   
     10. B(C  12,C  10)                  1.3952         0.612978   
     11. B(C  12,C   5)                  1.3949         0.613649   
     12. B(C  13,C   6)                  1.5426         0.356684   
     13. B(C  14,C   6)                  1.5320         0.370809   
     14. B(C  14,O   1)                  1.2236         1.031312   
     15. B(C  14,O   0)                  1.3601         0.624628   
     16. B(H  15,C   2)                  1.0977         0.350024   
     17. B(H  16,C   3)                  1.0981         0.349532   
     18. B(H  17,C   3)                  1.0986         0.348887   
     19. B(H  18,C   6)                  1.0989         0.348488   
     20. B(H  19,C   7)                  1.0953         0.353104   
     21. B(H  20,C   7)                  1.0951         0.353468   
     22. B(H  21,C   7)                  1.0959         0.352369   
     23. B(H  22,C   8)                  1.0958         0.352520   
     24. B(H  23,C   8)                  1.0950         0.353602   
     25. B(H  24,C   8)                  1.0942         0.354567   
     26. B(H  25,C   9)                  1.0860         0.365477   
     27. B(H  26,C  10)                  1.0853         0.366430   
     28. B(H  27,C  11)                  1.0867         0.364494   
     29. B(H  28,C  12)                  1.0867         0.364445   
     30. B(H  29,C  13)                  1.0960         0.352227   
     31. B(H  30,C  13)                  1.0952         0.353251   
     32. B(H  31,C  13)                  1.0955         0.352850   
     33. B(H  32,O   0)                  0.9815         0.480419   
     34. A(C  14,O   0,H  32)          111.8294         0.365594   
     35. A(C   3,C   2,C   7)          112.0355         0.360921   
     36. A(C   3,C   2,H  15)          107.9976         0.320807   
     37. A(C   3,C   2,C   8)          109.8138         0.360816   
     38. A(C   8,C   2,H  15)          108.5135         0.322655   
     39. A(C   7,C   2,H  15)          108.7109         0.322745   
     40. A(C   7,C   2,C   8)          109.6849         0.363088   
     41. A(C   4,C   3,H  17)          108.9580         0.326677   
     42. A(C   2,C   3,H  16)          109.9571         0.320734   
     43. A(C   2,C   3,C   4)          113.8408         0.365699   
     44. A(C   2,C   3,H  17)          109.1612         0.320637   
     45. A(H  16,C   3,H  17)          105.0009         0.288053   
     46. A(C   4,C   3,H  16)          109.5418         0.326777   
     47. A(C   3,C   4,C  10)          119.3502         0.403505   
     48. A(C   9,C   4,C  10)          121.3070         0.437350   
     49. A(C   3,C   4,C   9)          119.3429         0.403468   
     50. A(C  11,C   5,C  12)          119.9484         0.432277   
     51. A(C   6,C   5,C  12)          120.0027         0.406017   
     52. A(C   6,C   5,C  11)          120.0489         0.405847   
     53. A(C  13,C   6,H  18)          107.4818         0.320146   
     54. A(C   5,C   6,C  13)          113.9049         0.369382   
     55. A(C   5,C   6,H  18)          108.6374         0.330226   
     56. A(C  13,C   6,C  14)          108.1798         0.360037   
     57. A(C   5,C   6,C  14)          112.8021         0.371857   
     58. A(C  14,C   6,H  18)          105.3636         0.322187   
     59. A(C   2,C   7,H  21)          109.9027         0.323098   
     60. A(H  20,C   7,H  21)          107.3348         0.289007   
     61. A(H  19,C   7,H  21)          106.8674         0.288960   
     62. A(H  19,C   7,H  20)          108.8055         0.289101   
     63. A(C   2,C   7,H  20)          111.0173         0.323264   
     64. A(C   2,C   7,H  19)          112.6902         0.323209   
     65. A(H  22,C   8,H  24)          107.3520         0.289167   
     66. A(C   2,C   8,H  24)          111.2252         0.323338   
     67. A(H  22,C   8,H  23)          106.8282         0.289044   
     68. A(C   2,C   8,H  23)          112.6428         0.323194   
     69. A(C   2,C   8,H  22)          109.8140         0.323031   
     70. A(H  23,C   8,H  24)          108.7488         0.289306   
     71. A(C  11,C   9,H  25)          119.2907         0.353305   
     72. A(C   4,C   9,H  25)          121.3804         0.355037   
     73. A(C   4,C   9,C  11)          119.3274         0.435041   
     74. A(C   4,C  10,C  12)          119.3243         0.434832   
     75. A(C  12,C  10,H  26)          119.3002         0.353270   
     76. A(C   4,C  10,H  26)          121.3743         0.355225   
     77. A(C   9,C  11,H  27)          118.8995         0.353144   
     78. A(C   5,C  11,H  27)          121.0441         0.352877   
     79. A(C   5,C  11,C   9)          120.0562         0.432441   
     80. A(C   5,C  12,C  10)          120.0367         0.432376   
     81. A(C  10,C  12,H  28)          119.0112         0.352945   
     82. A(C   5,C  12,H  28)          120.9520         0.353010   
     83. A(H  30,C  13,H  31)          107.4895         0.289041   
     84. A(H  29,C  13,H  31)          107.6587         0.288910   
     85. A(C   6,C  13,H  31)          111.2473         0.320798   
     86. A(H  29,C  13,H  30)          107.9931         0.288961   
     87. A(C   6,C  13,H  30)          111.6399         0.320858   
     88. A(C   6,C  13,H  29)          110.6405         0.320705   
     89. A(O   1,C  14,C   6)          124.4123         0.430827   
     90. A(O   0,C  14,C   6)          113.0982         0.394152   
     91. A(O   0,C  14,O   1)          122.4879         0.470484   
     92. D(H  17,C   3,C   2,C   8)   -172.1896         0.010378   
     93. D(H  16,C   3,C   2,C   8)    -57.5002         0.010378   
     94. D(H  16,C   3,C   2,H  15)     60.6590         0.010378   
     95. D(H  16,C   3,C   2,C   7)   -179.6469         0.010378   
     96. D(H  17,C   3,C   2,H  15)    -54.0304         0.010378   
     97. D(H  17,C   3,C   2,C   7)     65.6637         0.010378   
     98. D(C   4,C   3,C   2,C   8)     65.8343         0.010378   
     99. D(C   4,C   3,C   2,H  15)   -176.0065         0.010378   
    100. D(C   4,C   3,C   2,C   7)    -56.3124         0.010378   
    101. D(C   9,C   4,C   3,H  17)    147.8706         0.012042   
    102. D(C  10,C   4,C   3,C   2)     90.0161         0.012042   
    103. D(C  10,C   4,C   3,H  16)   -146.4236         0.012042   
    104. D(C   9,C   4,C   3,H  16)     33.5192         0.012042   
    105. D(C  10,C   4,C   3,H  17)    -32.0722         0.012042   
    106. D(C   9,C   4,C   3,C   2)    -90.0411         0.012042   
    107. D(H  18,C   6,C   5,C  12)     -0.9493         0.013700   
    108. D(H  18,C   6,C   5,C  11)    179.0004         0.013700   
    109. D(C  14,C   6,C   5,C  11)     62.5709         0.013700   
    110. D(C  13,C   6,C   5,C  12)    118.8038         0.013700   
    111. D(C  13,C   6,C   5,C  11)    -61.2464         0.013700   
    112. D(C  14,C   6,C   5,C  12)   -117.3788         0.013700   
    113. D(H  21,C   7,C   2,H  15)    -52.6112         0.011117   
    114. D(H  21,C   7,C   2,C   8)     65.8930         0.011117   
    115. D(H  21,C   7,C   2,C   3)   -171.8868         0.011117   
    116. D(H  20,C   7,C   2,C   8)   -175.5151         0.011117   
    117. D(H  20,C   7,C   2,C   3)    -53.2949         0.011117   
    118. D(H  19,C   7,C   2,H  15)   -171.6795         0.011117   
    119. D(H  20,C   7,C   2,H  15)     65.9806         0.011117   
    120. D(H  19,C   7,C   2,C   8)    -53.1753         0.011117   
    121. D(H  19,C   7,C   2,C   3)     69.0449         0.011117   
    122. D(H  22,C   8,C   2,C   3)    170.6190         0.011081   
    123. D(H  24,C   8,C   2,C   7)    175.4674         0.011081   
    124. D(H  24,C   8,C   2,C   3)     51.9329         0.011081   
    125. D(H  23,C   8,C   2,H  15)    171.7081         0.011081   
    126. D(H  23,C   8,C   2,C   7)     53.0818         0.011081   
    127. D(H  23,C   8,C   2,C   3)    -70.4528         0.011081   
    128. D(H  22,C   8,C   2,H  15)     52.7799         0.011081   
    129. D(H  24,C   8,C   2,H  15)    -65.9063         0.011081   
    130. D(H  22,C   8,C   2,C   7)    -65.8464         0.011081   
    131. D(H  25,C   9,C   4,C  10)    179.5290         0.027794   
    132. D(H  25,C   9,C   4,C   3)     -0.4126         0.027794   
    133. D(C  11,C   9,C   4,C  10)     -0.0197         0.027794   
    134. D(C  11,C   9,C   4,C   3)   -179.9613         0.027794   
    135. D(H  26,C  10,C   4,C   9)   -179.6070         0.027825   
    136. D(H  26,C  10,C   4,C   3)      0.3347         0.027825   
    137. D(C  12,C  10,C   4,C   9)     -0.0030         0.027825   
    138. D(C  12,C  10,C   4,C   3)    179.9386         0.027825   
    139. D(H  27,C  11,C   9,C   4)    179.8887         0.026141   
    140. D(C   5,C  11,C   9,H  25)   -179.5326         0.026141   
    141. D(C   5,C  11,C   9,C   4)      0.0256         0.026141   
    142. D(H  27,C  11,C   5,C  12)   -179.8692         0.025895   
    143. D(H  27,C  11,C   5,C   6)      0.1810         0.025895   
    144. D(C   9,C  11,C   5,C  12)     -0.0091         0.025895   
    145. D(H  27,C  11,C   9,H  25)      0.3306         0.026141   
    146. D(C   9,C  11,C   5,C   6)   -179.9589         0.025895   
    147. D(H  28,C  12,C  10,C   4)   -179.9555         0.025965   
    148. D(C   5,C  12,C  10,H  26)    179.6320         0.025965   
    149. D(C   5,C  12,C  10,C   4)      0.0198         0.025965   
    150. D(H  28,C  12,C   5,C  11)    179.9610         0.026025   
    151. D(H  28,C  12,C   5,C   6)     -0.0891         0.026025   
    152. D(C  10,C  12,C   5,C  11)     -0.0137         0.026025   
    153. D(H  28,C  12,C  10,H  26)     -0.3433         0.025965   
    154. D(C  10,C  12,C   5,C   6)    179.9361         0.026025   
    155. D(H  31,C  13,C   6,H  18)    -50.6112         0.010220   
    156. D(H  31,C  13,C   6,C   5)   -171.0149         0.010220   
    157. D(H  30,C  13,C   6,H  18)   -170.6880         0.010220   
    158. D(H  30,C  13,C   6,C  14)    -57.3725         0.010220   
    159. D(H  30,C  13,C   6,C   5)     68.9083         0.010220   
    160. D(H  29,C  13,C   6,H  18)     69.0097         0.010220   
    161. D(H  31,C  13,C   6,C  14)     62.7043         0.010220   
    162. D(H  29,C  13,C   6,C  14)   -177.6748         0.010220   
    163. D(H  29,C  13,C   6,C   5)    -51.3940         0.010220   
    164. D(O   1,C  14,C   6,H  18)   -119.3926         0.010293   
    165. D(O   1,C  14,C   6,C  13)    125.8906         0.010293   
    166. D(O   1,C  14,C   6,C   5)     -1.0313         0.010293   
    167. D(O   0,C  14,C   6,H  18)     61.0566         0.010293   
    168. D(O   0,C  14,C   6,C  13)    -53.6603         0.010293   
    169. D(O   0,C  14,C   6,C   5)    179.4178         0.010293   
    170. D(C   6,C  14,O   0,H  32)    179.7013         0.028656   
    171. D(O   1,C  14,O   0,H  32)      0.1406         0.028656   
    -----------------------------------------------------------------

Number of atoms                         .... 33
Number of degrees of freedom            .... 171

         *************************************************************
         *                GEOMETRY OPTIMIZATION CYCLE   1            *
         *************************************************************
---------------------------------
CARTESIAN COORDINATES (ANGSTROEM)
---------------------------------
  O     -4.446000   -1.003000    0.411000
  O     -2.401000   -1.911000    0.053000
  C      3.902000   -0.441000    0.036000
  C      3.149000    0.819000   -0.431000
  C      1.653000    0.739000   -0.247000
  C     -1.095000    0.594000    0.090000
  C     -2.573000    0.515000    0.272000
  C      3.608000   -0.776000    1.500000
  C      3.524000   -1.630000   -0.851000
  C      0.869000    0.228000   -1.270000
  C      1.090000    1.179000    0.941000
  C     -0.513000    0.155000   -1.100000
  C     -0.293000    1.106000    1.110000
  C     -3.374000    1.349000   -0.749000
  C     -3.100000   -0.923000    0.233000
  H      4.978000   -0.253000   -0.073000
  H      3.379000    1.024000   -1.485000
  H      3.530000    1.691000    0.118000
  H     -2.824000    0.890000    1.274000
  H      2.579000   -1.117000    1.657000
  H      3.796000    0.088000    2.146000
  H      4.266000   -1.585000    1.837000
  H      4.178000   -2.481000   -0.630000
  H      2.496000   -1.969000   -0.686000
  H      3.649000   -1.389000   -1.911000
  H      1.308000   -0.110000   -2.204000
  H      1.702000    1.585000    1.740000
  H     -1.121000   -0.245000   -1.907000
  H     -0.729000    1.453000    2.043000
  H     -3.001000    2.379000   -0.784000
  H     -3.303000    0.929000   -1.758000
  H     -4.436000    1.389000   -0.483000
  H     -4.764000   -1.931000    0.378000

----------------------------
CARTESIAN COORDINATES (A.U.)
----------------------------
  NO LB      ZA    FRAG     MASS         X           Y           Z
   0 O     8.0000    0    15.999   -8.401722   -1.895395    0.776677
   1 O     8.0000    0    15.999   -4.537232   -3.611267    0.100155
   2 C     6.0000    0    12.011    7.373711   -0.833369    0.068030
   3 C     6.0000    0    12.011    5.950748    1.547686   -0.814472
   4 C     6.0000    0    12.011    3.123717    1.396508   -0.466762
   5 C     6.0000    0    12.011   -2.069250    1.122497    0.170075
   6 C     6.0000    0    12.011   -4.862265    0.973209    0.514006
   7 C     6.0000    0    12.011    6.818132   -1.466427    2.834589
   8 C     6.0000    0    12.011    6.659395   -3.080254   -1.608157
   9 C     6.0000    0    12.011    1.642172    0.430858   -2.399952
  10 C     6.0000    0    12.011    2.059801    2.227987    1.778232
  11 C     6.0000    0    12.011   -0.969430    0.292908   -2.078699
  12 C     6.0000    0    12.011   -0.553690    2.090037    2.097596
  13 C     6.0000    0    12.011   -6.375936    2.549241   -1.415405
  14 C     6.0000    0    12.011   -5.858151   -1.744217    0.440306
  15 H     1.0000    0     1.008    9.407057   -0.478101   -0.137950
  16 H     1.0000    0     1.008    6.385385    1.935080   -2.806243
  17 H     1.0000    0     1.008    6.670733    3.195527    0.222988
  18 H     1.0000    0     1.008   -5.336587    1.681856    2.407511
  19 H     1.0000    0     1.008    4.873604   -2.110824    3.131276
  20 H     1.0000    0     1.008    7.173400    0.166296    4.055352
  21 H     1.0000    0     1.008    8.061572   -2.995216    3.471427
  22 H     1.0000    0     1.008    7.895276   -4.688411   -1.190527
  23 H     1.0000    0     1.008    4.716756   -3.720871   -1.296352
  24 H     1.0000    0     1.008    6.895611   -2.624830   -3.611267
  25 H     1.0000    0     1.008    2.471762   -0.207870   -4.164956
  26 H     1.0000    0     1.008    3.216314    2.995216    3.288123
  27 H     1.0000    0     1.008   -2.118383   -0.462983   -3.603708
  28 H     1.0000    0     1.008   -1.377610    2.745772    3.860710
  29 H     1.0000    0     1.008   -5.671068    4.495658   -1.481545
  30 H     1.0000    0     1.008   -6.241765    1.755556   -3.322139
  31 H     1.0000    0     1.008   -8.382825    2.624830   -0.912738
  32 H     1.0000    0     1.008   -9.002655   -3.649061    0.714316

--------------------------------
INTERNAL COORDINATES (ANGSTROEM)
--------------------------------
 O      0   0   0     0.000000000000     0.00000000     0.00000000
 O      1   0   0     2.265977272613     0.00000000     0.00000000
 C      2   1   0     6.472171042239   142.02639808     0.00000000
 C      3   2   1     1.540356452254    73.17279184   326.80708558
 C      4   3   2     1.509394580618   113.84080816    10.59970509
 C      5   4   3     2.772381286908   179.95501349   183.59569400
 C      6   5   4     1.491257523032   179.95200003   189.53568757
 C      3   2   1     1.530345385852    76.15336709    85.37774192
 C      3   2   1     1.530808283228    65.45774207   204.97733229
 C      5   4   3     1.386472502432   119.34285235   269.95889779
 C      5   4   3     1.386330768612   119.35016621    90.01611150
 C     10   5   4     1.394328870819   119.32744743   180.03871548
 C      6   5  11     1.394900713313    59.98635242     0.00000000
 C      7   6  13     1.542594567604   113.90490277   118.80383237
 C      2   1   3     1.223578767387    30.41665118   349.66971944
 H      3   2   1     1.097725375492   173.58926299   225.31085521
 H      4   3   2     1.098107918194   109.95705870   247.26517503
 H      4   3   2     1.098610941143   109.16123469   132.57581803
 H      7   6  13     1.098922199248   108.63741506   359.05067658
 H      8   3   2     1.095340586302   112.69015307     3.96865658
 H      8   3   2     1.095059815718   111.01728362   241.62882024
 H      8   3   2     1.095907842841   109.90270667   123.03696270
 H      9   3   2     1.095791038474   109.81399283   230.43494213
 H      9   3   2     1.094956620145   112.64281671   349.36312968
 H      9   3   2     1.094214786959   111.22523996   111.74877070
 H     10   5   4     1.085965469064   121.38038481   359.58735196
 H     11   5   4     1.085256190952   121.37432586     0.33467707
 H     12  10   5     1.086698210176   118.89954364   179.88872264
 H     13   6   5     1.086735478394   120.95203286   179.96482895
 H     14   7   6     1.096017335629   110.64054131   308.60596547
 H     14   7   6     1.095226917127   111.63993941    68.90827082
 H     14   7   6     1.095536398300   111.24734937   188.98506442
 H      1   2   3     0.981527890587    84.73402712   190.46132487

---------------------------
INTERNAL COORDINATES (A.U.)
---------------------------
 O      0   0   0     0.000000000000     0.00000000     0.00000000
 O      1   0   0     4.282076470929     0.00000000     0.00000000
 C      2   1   0    12.230630761728   142.02639808     0.00000000
 C      3   2   1     2.910851843378    73.17279184   326.80708558
 C      4   3   2     2.852342385394   113.84080816    10.59970509
 C      5   4   3     5.239041371065   179.95501349   183.59569400
 C      6   5   4     2.818068313681   179.95200003   189.53568757
 C      3   2   1     2.891933669571    76.15336709    85.37774192
 C      3   2   1     2.892808418839    65.45774207   204.97733229
 C      5   4   3     2.620053321809   119.34285235   269.95889779
 C      5   4   3     2.619785483705   119.35016621    90.01611150
 C     10   5   4     2.634899706468   119.32744743   180.03871548
 C      6   5  11     2.635980332172    59.98635242     0.00000000
 C      7   6  13     2.915081268445   113.90490277   118.80383237
 C      2   1   3     2.312228773642    30.41665118   349.66971944
 H      3   2   1     2.074400329937   173.58926299   225.31085521
 H      4   3   2     2.075123230877   109.95705870   247.26517503
 H      4   3   2     2.076073806491   109.16123469   132.57581803
 H      7   6  13     2.076661999065   108.63741506   359.05067658
 H      8   3   2     2.069893731479   112.69015307     3.96865658
 H      8   3   2     2.069363151969   111.01728362   241.62882024
 H      8   3   2     2.070965690986   109.90270667   123.03696270
 H      9   3   2     2.070744962721   109.81399283   230.43494213
 H      9   3   2     2.069168140599   112.64281671   349.36312968
 H      9   3   2     2.067766279040   111.22523996   111.74877070
 H     10   5   4     2.052177327427   121.38038481   359.58735196
 H     11   5   4     2.050836986042   121.37432586     0.33467707
 H     12  10   5     2.053562007455   118.89954364   179.88872264
 H     13   6   5     2.053632434180   120.95203286   179.96482895
 H     14   7   6     2.071172602369   110.64054131   308.60596547
 H     14   7   6     2.069678927869   111.63993941    68.90827082
 H     14   7   6     2.070263762529   111.24734937   188.98506442
 H      1   2   3     1.854818906015    84.73402712   190.46132487

---------------------
BASIS SET INFORMATION
---------------------
There are 3 groups of distinct atoms

 Group   1 Type O   : 18s5p2d1f contracted to 4s3p2d1f pattern {8811/311/11/1}
 Group   2 Type C   : 18s5p2d1f contracted to 4s3p2d1f pattern {8811/311/11/1}
 Group   3 Type H   : 5s2p1d contracted to 3s2p1d pattern {311/11/1}

Atom   0O    basis set group =>   1
Atom   1O    basis set group =>   1
Atom   2C    basis set group =>   2
Atom   3C    basis set group =>   2
Atom   4C    basis set group =>   2
Atom   5C    basis set group =>   2
Atom   6C    basis set group =>   2
Atom   7C    basis set group =>   2
Atom   8C    basis set group =>   2
Atom   9C    basis set group =>   2
Atom  10C    basis set group =>   2
Atom  11C    basis set group =>   2
Atom  12C    basis set group =>   2
Atom  13C    basis set group =>   2
Atom  14C    basis set group =>   2
Atom  15H    basis set group =>   3
Atom  16H    basis set group =>   3
Atom  17H    basis set group =>   3
Atom  18H    basis set group =>   3
Atom  19H    basis set group =>   3
Atom  20H    basis set group =>   3
Atom  21H    basis set group =>   3
Atom  22H    basis set group =>   3
Atom  23H    basis set group =>   3
Atom  24H    basis set group =>   3
Atom  25H    basis set group =>   3
Atom  26H    basis set group =>   3
Atom  27H    basis set group =>   3
Atom  28H    basis set group =>   3
Atom  29H    basis set group =>   3
Atom  30H    basis set group =>   3
Atom  31H    basis set group =>   3
Atom  32H    basis set group =>   3


           ************************************************************
           *        Program running with 20 parallel MPI-processes    *
           *              working on a common directory               *
           ************************************************************
------------------------------------------------------------------------------
                           ORCA GTO INTEGRAL CALCULATION
------------------------------------------------------------------------------

                         BASIS SET STATISTICS AND STARTUP INFO

 # of primitive gaussian shells          ...  534
 # of primitive gaussian functions       ... 1038
 # of contracted shells                  ...  258
 # of contracted basis functions         ...  702
 Highest angular momentum                ...    3
 Maximum contraction depth               ...    8
 Integral package used                   ... LIBINT
 Integral threshhold            Thresh   ...  2.500e-11
 Primitive cut-off              TCut     ...  2.500e-12


------------------------------ INTEGRAL EVALUATION ----------------------------


 * One electron integrals 
 Pre-screening matrix                    ... done
 Shell pair data                         ... done (   0.012 sec)



           ************************************************************
           *        Program running with 20 parallel MPI-processes    *
           *              working on a common directory               *
           ************************************************************
-------------------------------------------------------------------------------
                                 ORCA SCF
-------------------------------------------------------------------------------

------------
SCF SETTINGS
------------
Hamiltonian:
 Density Functional     Method          .... DFT(GTOs)
 Exchange Functional    Exchange        .... B88
   X-Alpha parameter    XAlpha          ....  0.666667
   Becke's b parameter  XBeta           ....  0.004200
 Correlation Functional Correlation     .... LYP
 LDA part of GGA corr.  LDAOpt          .... VWN-5
 Gradients option       PostSCFGGA      .... off
 Hybrid DFT is turned on
   Fraction HF Exchange ScalHFX         ....  0.200000
   Scaling of DF-GGA-X  ScalDFX         ....  0.720000
   Scaling of DF-GGA-C  ScalDFC         ....  0.810000
   Scaling of DF-LDA-C  ScalLDAC        ....  1.000000
   Perturbative correction              ....  0.000000
   Density functional embedding theory  .... OFF
   NL short-range parameter             ....  4.800000


General Settings:
 Integral files         IntName         .... IBU0
 Hartree-Fock type      HFTyp           .... RHF
 Total Charge           Charge          ....    0
 Multiplicity           Mult            ....    1
 Number of Electrons    NEL             ....  112
 Basis Dimension        Dim             ....  702
 Nuclear Repulsion      ENuc            ....    985.5033411460 Eh

Convergence Acceleration:
 DIIS                   CNVDIIS         .... on
   Start iteration      DIISMaxIt       ....    12
   Startup error        DIISStart       ....  0.200000
   # of expansion vecs  DIISMaxEq       ....     5
   Bias factor          DIISBfac        ....   1.050
   Max. coefficient     DIISMaxC        ....  10.000
 Newton-Raphson         CNVNR           .... off
 SOSCF                  CNVSOSCF        .... on
   Start iteration      SOSCFMaxIt      ....   150
   Startup grad/error   SOSCFStart      ....  0.003300
 Level Shifting         CNVShift        .... on
   Level shift para.    LevelShift      ....    0.2500
   Turn off err/grad.   ShiftErr        ....    0.0010
 Zerner damping         CNVZerner       .... off
 Static damping         CNVDamp         .... on
   Fraction old density DampFac         ....    0.7000
   Max. Damping (<1)    DampMax         ....    0.9800
   Min. Damping (>=0)   DampMin         ....    0.0000
   Turn off err/grad.   DampErr         ....    0.1000
 Fernandez-Rico         CNVRico         .... off

SCF Procedure:
 Maximum # iterations   MaxIter         ....   111
 SCF integral mode      SCFMode         .... Direct
   Integral package                     .... LIBINT
 Reset frequency        DirectResetFreq ....    20
 Integral Threshold     Thresh          ....  2.500e-11 Eh
 Primitive CutOff       TCut            ....  2.500e-12 Eh

Convergence Tolerance:
 Convergence Check Mode ConvCheckMode   .... Total+1el-Energy
 Convergence forced     ConvForced      .... 0
 Energy Change          TolE            ....  1.000e-08 Eh
 1-El. energy change                    ....  1.000e-05 Eh
 Orbital Gradient       TolG            ....  1.000e-05
 Orbital Rotation angle TolX            ....  1.000e-05
 DIIS Error             TolErr          ....  5.000e-07


Diagonalization of the overlap matrix:
Smallest eigenvalue                        ... 2.591e-05
Time for diagonalization                   ...    0.148 sec
Threshold for overlap eigenvalues          ... 1.000e-08
Number of eigenvalues below threshold      ... 0
Time for construction of square roots      ...    0.118 sec
Total time needed                          ...    0.269 sec

-------------------
DFT GRID GENERATION
-------------------

General Integration Accuracy     IntAcc      ...  4.340
Radial Grid Type                 RadialGrid  ... Gauss-Chebyshev
Angular Grid (max. acc.)         AngularGrid ... Lebedev-110
Angular grid pruning method      GridPruning ... 3 (G Style)
Weight generation scheme         WeightScheme... Becke
Basis function cutoff            BFCut       ...    1.0000e-11
Integration weight cutoff        WCut        ...    1.0000e-14
Grids for H and He will be reduced by one unit

# of grid points (after initial pruning)     ...  39252 (   0.0 sec)
# of grid points (after weights+screening)   ...  35141 (   0.0 sec)
nearest neighbour list constructed           ...    0.0 sec
Grid point re-assignment to atoms done       ...    0.0 sec
Grid point division into batches done        ...    0.0 sec
Reduced shell lists constructed in    0.1 sec

Total number of grid points                  ...    35141
Total number of batches                      ...      570
Average number of points per batch           ...       61
Average number of grid points per atom       ...     1065
Average number of shells per batch           ...   105.73 (40.98%)
Average number of basis functions per batch  ...   261.13 (37.20%)
Average number of large shells per batch     ...    65.80 (62.23%)
Average number of large basis fcns per batch ...   167.07 (63.98%)
Maximum spatial batch extension              ...  11.64, 15.09, 17.14 au
Average spatial batch extension              ...   0.17,  0.19,  0.25 au

Time for grid setup =    0.290 sec

------------------------------
INITIAL GUESS: MODEL POTENTIAL
------------------------------
Loading Hartree-Fock densities                     ... done
Calculating cut-offs                               ... done
Setting up the integral package                    ... done
Initializing the effective Hamiltonian             ... done
Starting the Coulomb interaction                   ... done (   0.1 sec)
Reading the grid                                   ... done
Mapping shells                                     ... done
Starting the XC term evaluation                    ... done (   0.2 sec)
  promolecular density results
     # of electrons  =    111.992372493
     EX              =    -88.599886819
     EC              =     -3.737420241
     EX+EC           =    -92.337307060
Transforming the Hamiltonian                       ... done (   0.1 sec)
Diagonalizing the Hamiltonian                      ... done (   0.1 sec)
Back transforming the eigenvectors                 ... done (   0.0 sec)
Now organizing SCF variables                       ... done
                      ------------------
                      INITIAL GUESS DONE (   1.5 sec)
                      ------------------
--------------
SCF ITERATIONS
--------------
ITER       Energy         Delta-E        Max-DP      RMS-DP      [F,P]     Damp
               ***  Starting incremental Fock matrix formation  ***
  0   -655.9901932122   0.000000000000 0.08900539  0.00061160  0.3288854 0.7000
  1   -656.2422124685  -0.252019256299 0.06822243  0.00044993  0.1211808 0.7000
                               ***Turning on DIIS***
  2   -656.3379354945  -0.095723025988 0.07244071  0.00070130  0.0388702 0.0000
  3   -656.4859474132  -0.148011918682 0.05610074  0.00033275  0.0617604 0.0000
  4   -656.5218388534  -0.035891440224 0.01008915  0.00010840  0.0164595 0.0000
  5   -656.5239602292  -0.002121375731 0.00418932  0.00004114  0.0137461 0.0000
                      *** Initiating the SOSCF procedure ***
                           *** Shutting down DIIS ***
                      *** Re-Reading the Fockian *** 
                      *** Removing any level shift *** 
ITER      Energy       Delta-E        Grad      Rot      Max-DP    RMS-DP
  6   -656.52423481  -0.0002745777  0.000255  0.000255  0.000913  0.000016
               *** Restarting incremental Fock matrix formation ***
  7   -656.52424784  -0.0000130339  0.000229  0.000750  0.000641  0.000011
  8   -656.52424379   0.0000040469  0.000516  0.000559  0.000420  0.000005
  9   -656.52425086  -0.0000070634  0.000066  0.000151  0.000146  0.000002
 10   -656.52425059   0.0000002676  0.000105  0.000102  0.000105  0.000001
 11   -656.52425099  -0.0000004022  0.000010  0.000033  0.000050  0.000000
 12   -656.52425098   0.0000000125  0.000018  0.000026  0.000022  0.000000
 13   -656.52425100  -0.0000000183  0.000003  0.000008  0.000013  0.000000
 14   -656.52425100  -0.0000000015  0.000003  0.000005  0.000007  0.000000
                  ***Gradient check signals convergence***
              ***Rediagonalizing the Fockian in SOSCF/NRSCF***

               *****************************************************
               *                     SUCCESS                       *
               *           SCF CONVERGED AFTER  15 CYCLES          *
               *****************************************************

Setting up the final grid:

General Integration Accuracy     IntAcc      ...  4.670
Radial Grid Type                 RadialGrid  ... Gauss-Chebyshev
Angular Grid (max. acc.)         AngularGrid ... Lebedev-302
Angular grid pruning method      GridPruning ... 3 (G Style)
Weight generation scheme         WeightScheme... Becke
Basis function cutoff            BFCut       ...    1.0000e-11
Integration weight cutoff        WCut        ...    1.0000e-14
Grids for H and He will be reduced by one unit

# of grid points (after initial pruning)     ... 154272 (   0.0 sec)
# of grid points (after weights+screening)   ... 135153 (   0.1 sec)
nearest neighbour list constructed           ...    0.0 sec
Grid point re-assignment to atoms done       ...    0.0 sec
Grid point division into batches done        ...    0.5 sec
Reduced shell lists constructed in    0.7 sec

Total number of grid points                  ...   135153
Total number of batches                      ...     2129
Average number of points per batch           ...       63
Average number of grid points per atom       ...     4096
Average number of shells per batch           ...    95.00 (36.82%)
Average number of basis functions per batch  ...   232.80 (33.16%)
Average number of large shells per batch     ...    57.84 (60.89%)
Average number of large basis fcns per batch ...   144.94 (62.26%)
Maximum spatial batch extension              ...  12.11, 13.03, 13.24 au
Average spatial batch extension              ...   0.11,  0.12,  0.12 au

Final grid set up in    1.0 sec
Final integration                            ... done (   1.0 sec)
Change in XC energy                          ...    -0.000158972
Integrated number of electrons               ...   112.000691549
Previous integrated no of electrons          ...   112.000292858

----------------
TOTAL SCF ENERGY
----------------

Total Energy       :         -656.52440997 Eh          -17864.93743 eV

Components:
Nuclear Repulsion  :          985.50334115 Eh           26816.90926 eV
Electronic Energy  :        -1642.02775111 Eh          -44681.84669 eV
One Electron Energy:        -2846.62418783 Eh          -77460.58217 eV
Two Electron Energy:         1204.59643672 Eh           32778.73548 eV

Virial components:
Potential Energy   :        -1308.89161092 Eh          -35616.75145 eV
Kinetic Energy     :          652.36720095 Eh           17751.81402 eV
Virial Ratio       :            2.00637250


DFT components:
N(Alpha)           :       56.000345774475 electrons
N(Beta)            :       56.000345774475 electrons
N(Total)           :      112.000691548949 electrons
E(X)               :      -71.697782664479 Eh       
E(C)               :       -4.415742616669 Eh       
E(XC)              :      -76.113525281149 Eh       
DFET-embed. en.    :        0.000000000000 Eh       

---------------
SCF CONVERGENCE
---------------

  Last Energy change         ...    5.2815e-09  Tolerance :   1.0000e-08
  Last MAX-Density change    ...    1.5475e-06  Tolerance :   1.0000e-07
  Last RMS-Density change    ...    2.0664e-08  Tolerance :   5.0000e-09
  Last Orbital Gradient      ...    3.0908e-07  Tolerance :   1.0000e-05
  Last Orbital Rotation      ...    1.0901e-06  Tolerance :   1.0000e-05

             **** THE GBW FILE WAS UPDATED (IBU0.gbw) ****
             **** DENSITY FILE WAS UPDATED (IBU0.scfp) ****
             **** ENERGY FILE WAS UPDATED (IBU0.en.tmp) ****
             **** THE GBW FILE WAS UPDATED (IBU0.gbw) ****
             **** DENSITY FILE WAS UPDATED (IBU0.scfp) ****
----------------
ORBITAL ENERGIES
----------------

  NO   OCC          E(Eh)            E(eV) 
   0   2.0000     -19.177957      -521.8587 
   1   2.0000     -19.114529      -520.1328 
   2   2.0000     -10.308367      -280.5049 
   3   2.0000     -10.200952      -277.5820 
   4   2.0000     -10.178667      -276.9756 
   5   2.0000     -10.173344      -276.8308 
   6   2.0000     -10.173265      -276.8286 
   7   2.0000     -10.173111      -276.8244 
   8   2.0000     -10.172268      -276.8015 
   9   2.0000     -10.169973      -276.7390 
  10   2.0000     -10.167791      -276.6797 
  11   2.0000     -10.167318      -276.6668 
  12   2.0000     -10.164424      -276.5881 
  13   2.0000     -10.152339      -276.2592 
  14   2.0000     -10.150855      -276.2188 
  15   2.0000      -1.100443       -29.9446 
  16   2.0000      -1.010914       -27.5084 
  17   2.0000      -0.863630       -23.5006 
  18   2.0000      -0.820169       -22.3179 
  19   2.0000      -0.793240       -21.5851 
  20   2.0000      -0.743824       -20.2405 
  21   2.0000      -0.738664       -20.1001 
  22   2.0000      -0.678955       -18.4753 
  23   2.0000      -0.675890       -18.3919 
  24   2.0000      -0.664421       -18.0798 
  25   2.0000      -0.616082       -16.7645 
  26   2.0000      -0.606913       -16.5149 
  27   2.0000      -0.571048       -15.5390 
  28   2.0000      -0.551303       -15.0017 
  29   2.0000      -0.502164       -13.6646 
  30   2.0000      -0.495053       -13.4711 
  31   2.0000      -0.479559       -13.0495 
  32   2.0000      -0.468201       -12.7404 
  33   2.0000      -0.456751       -12.4288 
  34   2.0000      -0.450730       -12.2650 
  35   2.0000      -0.449476       -12.2309 
  36   2.0000      -0.426316       -11.6006 
  37   2.0000      -0.423595       -11.5266 
  38   2.0000      -0.420357       -11.4385 
  39   2.0000      -0.409248       -11.1362 
  40   2.0000      -0.406817       -11.0700 
  41   2.0000      -0.388236       -10.5644 
  42   2.0000      -0.377842       -10.2816 
  43   2.0000      -0.374216       -10.1829 
  44   2.0000      -0.368167       -10.0183 
  45   2.0000      -0.357040        -9.7156 
  46   2.0000      -0.353808        -9.6276 
  47   2.0000      -0.345481        -9.4010 
  48   2.0000      -0.336854        -9.1663 
  49   2.0000      -0.325648        -8.8613 
  50   2.0000      -0.322872        -8.7858 
  51   2.0000      -0.319536        -8.6950 
  52   2.0000      -0.311045        -8.4640 
  53   2.0000      -0.275746        -7.5034 
  54   2.0000      -0.249390        -6.7862 
  55   2.0000      -0.236495        -6.4354 
  56   0.0000      -0.009646        -0.2625 
  57   0.0000      -0.005915        -0.1609 
  58   0.0000      -0.000215        -0.0059 
  59   0.0000       0.029618         0.8059 
  60   0.0000       0.037448         1.0190 
  61   0.0000       0.050976         1.3871 
  62   0.0000       0.058074         1.5803 
  63   0.0000       0.070672         1.9231 
  64   0.0000       0.074310         2.0221 
  65   0.0000       0.078477         2.1355 
  66   0.0000       0.092569         2.5189 
  67   0.0000       0.103877         2.8266 
  68   0.0000       0.106774         2.9055 
  69   0.0000       0.107927         2.9368 
  70   0.0000       0.116252         3.1634 
  71   0.0000       0.117648         3.2014 
  72   0.0000       0.125291         3.4093 
  73   0.0000       0.139773         3.8034 
  74   0.0000       0.146437         3.9847 
  75   0.0000       0.156065         4.2468 
  76   0.0000       0.162266         4.4155 
  77   0.0000       0.163121         4.4387 
  78   0.0000       0.165696         4.5088 
  79   0.0000       0.172558         4.6955 
  80   0.0000       0.187725         5.1082 
  81   0.0000       0.210646         5.7320 
  82   0.0000       0.213387         5.8065 
  83   0.0000       0.224020         6.0959 
  84   0.0000       0.231169         6.2904 
  85   0.0000       0.236862         6.4454 
  86   0.0000       0.241732         6.5779 
  87   0.0000       0.246536         6.7086 
  88   0.0000       0.259701         7.0668 
  89   0.0000       0.269102         7.3226 
  90   0.0000       0.272828         7.4240 
  91   0.0000       0.279907         7.6166 
  92   0.0000       0.280974         7.6457 
  93   0.0000       0.285665         7.7733 
  94   0.0000       0.289999         7.8913 
  95   0.0000       0.297920         8.1068 
  96   0.0000       0.309921         8.4334 
  97   0.0000       0.314424         8.5559 
  98   0.0000       0.315707         8.5908 
  99   0.0000       0.331233         9.0133 
 100   0.0000       0.340136         9.2556 
 101   0.0000       0.346057         9.4167 
 102   0.0000       0.353720         9.6252 
 103   0.0000       0.357763         9.7352 
 104   0.0000       0.360743         9.8163 
 105   0.0000       0.367211         9.9923 
 106   0.0000       0.371765        10.1162 
 107   0.0000       0.382860        10.4182 
 108   0.0000       0.394664        10.7393 
 109   0.0000       0.397290        10.8108 
 110   0.0000       0.405407        11.0317 
 111   0.0000       0.408551        11.1172 
 112   0.0000       0.416036        11.3209 
 113   0.0000       0.425633        11.5821 
 114   0.0000       0.430615        11.7176 
 115   0.0000       0.435238        11.8434 
 116   0.0000       0.443823        12.0770 
 117   0.0000       0.446263        12.1434 
 118   0.0000       0.448076        12.1928 
 119   0.0000       0.451107        12.2752 
 120   0.0000       0.458272        12.4702 
 121   0.0000       0.461239        12.5509 
 122   0.0000       0.464171        12.6307 
 123   0.0000       0.467033        12.7086 
 124   0.0000       0.469544        12.7770 
 125   0.0000       0.474977        12.9248 
 126   0.0000       0.478101        13.0098 
 127   0.0000       0.482896        13.1403 
 128   0.0000       0.486873        13.2485 
 129   0.0000       0.493665        13.4333 
 130   0.0000       0.495383        13.4800 
 131   0.0000       0.504013        13.7149 
 132   0.0000       0.509185        13.8556 
 133   0.0000       0.513037        13.9604 
 134   0.0000       0.515709        14.0332 
 135   0.0000       0.519996        14.1498 
 136   0.0000       0.529268        14.4021 
 137   0.0000       0.537182        14.6175 
 138   0.0000       0.541124        14.7247 
 139   0.0000       0.546588        14.8734 
 140   0.0000       0.558513        15.1979 
 141   0.0000       0.564336        15.3564 
 142   0.0000       0.574992        15.6463 
 143   0.0000       0.575654        15.6643 
 144   0.0000       0.597278        16.2528 
 145   0.0000       0.601592        16.3701 
 146   0.0000       0.607134        16.5210 
 147   0.0000       0.613678        16.6990 
 148   0.0000       0.622548        16.9404 
 149   0.0000       0.634022        17.2526 
 150   0.0000       0.638647        17.3785 
 151   0.0000       0.645542        17.5661 
 152   0.0000       0.652815        17.7640 
 153   0.0000       0.662251        18.0208 
 154   0.0000       0.666564        18.1381 
 155   0.0000       0.680936        18.5292 
 156   0.0000       0.684673        18.6309 
 157   0.0000       0.690878        18.7997 
 158   0.0000       0.712914        19.3994 
 159   0.0000       0.727768        19.8036 
 160   0.0000       0.729100        19.8398 
 161   0.0000       0.745615        20.2892 
 162   0.0000       0.755205        20.5502 
 163   0.0000       0.765693        20.8356 
 164   0.0000       0.774714        21.0810 
 165   0.0000       0.787164        21.4198 
 166   0.0000       0.797455        21.6998 
 167   0.0000       0.803067        21.8526 
 168   0.0000       0.809464        22.0266 
 169   0.0000       0.819476        22.2991 
 170   0.0000       0.827943        22.5295 
 171   0.0000       0.834847        22.7173 
 172   0.0000       0.846019        23.0213 
 173   0.0000       0.847860        23.0714 
 174   0.0000       0.853450        23.2236 
 175   0.0000       0.859387        23.3851 
 176   0.0000       0.861679        23.4475 
 177   0.0000       0.880193        23.9513 
 178   0.0000       0.890412        24.2293 
 179   0.0000       0.909825        24.7576 
 180   0.0000       0.919353        25.0169 
 181   0.0000       0.924460        25.1558 
 182   0.0000       0.927371        25.2351 
 183   0.0000       0.941983        25.6327 
 184   0.0000       0.948778        25.8176 
 185   0.0000       0.956762        26.0348 
 186   0.0000       0.958431        26.0802 
 187   0.0000       0.965620        26.2758 
 188   0.0000       0.972805        26.4714 
 189   0.0000       0.979743        26.6601 
 190   0.0000       0.989114        26.9152 
 191   0.0000       0.990542        26.9540 
 192   0.0000       0.998924        27.1821 
 193   0.0000       1.000925        27.2365 
 194   0.0000       1.007105        27.4047 
 195   0.0000       1.015372        27.6297 
 196   0.0000       1.023418        27.8486 
 197   0.0000       1.025900        27.9162 
 198   0.0000       1.047321        28.4991 
 199   0.0000       1.058290        28.7975 
 200   0.0000       1.065741        29.0003 
 201   0.0000       1.071307        29.1517 
 202   0.0000       1.075430        29.2639 
 203   0.0000       1.086897        29.5760 
 204   0.0000       1.091500        29.7012 
 205   0.0000       1.104335        30.0505 
 206   0.0000       1.108811        30.1723 
 207   0.0000       1.118046        30.4236 
 208   0.0000       1.130255        30.7558 
 209   0.0000       1.135252        30.8918 
 210   0.0000       1.141912        31.0730 
 211   0.0000       1.157807        31.5055 
 212   0.0000       1.161527        31.6067 
 213   0.0000       1.162178        31.6245 
 214   0.0000       1.172558        31.9069 
 215   0.0000       1.178124        32.0584 
 216   0.0000       1.185112        32.2485 
 217   0.0000       1.192308        32.4444 
 218   0.0000       1.201733        32.7008 
 219   0.0000       1.205189        32.7949 
 220   0.0000       1.209708        32.9178 
 221   0.0000       1.218969        33.1698 
 222   0.0000       1.228070        33.4175 
 223   0.0000       1.232814        33.5466 
 224   0.0000       1.239931        33.7402 
 225   0.0000       1.242074        33.7986 
 226   0.0000       1.250793        34.0358 
 227   0.0000       1.259473        34.2720 
 228   0.0000       1.264622        34.4121 
 229   0.0000       1.268677        34.5224 
 230   0.0000       1.290528        35.1170 
 231   0.0000       1.293910        35.2091 
 232   0.0000       1.295513        35.2527 
 233   0.0000       1.305074        35.5129 
 234   0.0000       1.317266        35.8446 
 235   0.0000       1.319395        35.9026 
 236   0.0000       1.327788        36.1310 
 237   0.0000       1.332948        36.2714 
 238   0.0000       1.342869        36.5413 
 239   0.0000       1.347593        36.6699 
 240   0.0000       1.352388        36.8003 
 241   0.0000       1.359919        37.0053 
 242   0.0000       1.368875        37.2490 
 243   0.0000       1.372913        37.3589 
 244   0.0000       1.377811        37.4921 
 245   0.0000       1.390912        37.8486 
 246   0.0000       1.393748        37.9258 
 247   0.0000       1.404790        38.2263 
 248   0.0000       1.406500        38.2728 
 249   0.0000       1.411415        38.4065 
 250   0.0000       1.418192        38.5910 
 251   0.0000       1.430929        38.9375 
 252   0.0000       1.433260        39.0010 
 253   0.0000       1.441965        39.2379 
 254   0.0000       1.449454        39.4416 
 255   0.0000       1.454395        39.5761 
 256   0.0000       1.465138        39.8684 
 257   0.0000       1.472240        40.0617 
 258   0.0000       1.481498        40.3136 
 259   0.0000       1.493982        40.6533 
 260   0.0000       1.509865        41.0855 
 261   0.0000       1.518893        41.3312 
 262   0.0000       1.523345        41.4523 
 263   0.0000       1.527228        41.5580 
 264   0.0000       1.533263        41.7222 
 265   0.0000       1.547072        42.0980 
 266   0.0000       1.554226        42.2927 
 267   0.0000       1.560482        42.4629 
 268   0.0000       1.577029        42.9131 
 269   0.0000       1.589696        43.2578 
 270   0.0000       1.599091        43.5135 
 271   0.0000       1.607457        43.7411 
 272   0.0000       1.631926        44.4070 
 273   0.0000       1.642719        44.7007 
 274   0.0000       1.651581        44.9418 
 275   0.0000       1.679409        45.6990 
 276   0.0000       1.689651        45.9777 
 277   0.0000       1.699641        46.2496 
 278   0.0000       1.727217        47.0000 
 279   0.0000       1.730493        47.0891 
 280   0.0000       1.743602        47.4458 
 281   0.0000       1.758237        47.8441 
 282   0.0000       1.762813        47.9686 
 283   0.0000       1.771158        48.1957 
 284   0.0000       1.777337        48.3638 
 285   0.0000       1.803633        49.0793 
 286   0.0000       1.820358        49.5345 
 287   0.0000       1.895397        51.5764 
 288   0.0000       1.963470        53.4287 
 289   0.0000       1.971578        53.6494 
 290   0.0000       1.991089        54.1803 
 291   0.0000       1.999043        54.3967 
 292   0.0000       2.025003        55.1031 
 293   0.0000       2.048897        55.7533 
 294   0.0000       2.057095        55.9764 
 295   0.0000       2.083377        56.6916 
 296   0.0000       2.096742        57.0552 
 297   0.0000       2.123269        57.7771 
 298   0.0000       2.134237        58.0756 
 299   0.0000       2.144104        58.3440 
 300   0.0000       2.158189        58.7273 
 301   0.0000       2.173369        59.1404 
 302   0.0000       2.208420        60.0942 
 303   0.0000       2.209956        60.1360 
 304   0.0000       2.239175        60.9311 
 305   0.0000       2.247283        61.1517 
 306   0.0000       2.275800        61.9277 
 307   0.0000       2.297820        62.5269 
 308   0.0000       2.306873        62.7732 
 309   0.0000       2.322693        63.2037 
 310   0.0000       2.338110        63.6232 
 311   0.0000       2.350100        63.9495 
 312   0.0000       2.355289        64.0907 
 313   0.0000       2.376333        64.6633 
 314   0.0000       2.382389        64.8281 
 315   0.0000       2.401695        65.3534 
 316   0.0000       2.404766        65.4370 
 317   0.0000       2.412771        65.6548 
 318   0.0000       2.433091        66.2078 
 319   0.0000       2.440682        66.4143 
 320   0.0000       2.452690        66.7411 
 321   0.0000       2.465588        67.0920 
 322   0.0000       2.474837        67.3437 
 323   0.0000       2.478901        67.4543 
 324   0.0000       2.485156        67.6245 
 325   0.0000       2.494303        67.8734 
 326   0.0000       2.506227        68.1979 
 327   0.0000       2.509740        68.2935 
 328   0.0000       2.516448        68.4760 
 329   0.0000       2.525510        68.7226 
 330   0.0000       2.532639        68.9166 
 331   0.0000       2.546434        69.2920 
 332   0.0000       2.564984        69.7968 
 333   0.0000       2.577263        70.1309 
 334   0.0000       2.588356        70.4327 
 335   0.0000       2.600595        70.7658 
 336   0.0000       2.604842        70.8814 
 337   0.0000       2.609155        70.9987 
 338   0.0000       2.620371        71.3039 
 339   0.0000       2.632031        71.6212 
 340   0.0000       2.653158        72.1961 
 341   0.0000       2.653984        72.2186 
 342   0.0000       2.662145        72.4406 
 343   0.0000       2.666477        72.5585 
 344   0.0000       2.674834        72.7859 
 345   0.0000       2.682004        72.9810 
 346   0.0000       2.689560        73.1866 
 347   0.0000       2.700941        73.4963 
 348   0.0000       2.713407        73.8356 
 349   0.0000       2.715236        73.8853 
 350   0.0000       2.722325        74.0782 
 351   0.0000       2.732893        74.3658 
 352   0.0000       2.740186        74.5643 
 353   0.0000       2.746029        74.7232 
 354   0.0000       2.751640        74.8759 
 355   0.0000       2.754744        74.9604 
 356   0.0000       2.765809        75.2615 
 357   0.0000       2.777339        75.5752 
 358   0.0000       2.796361        76.0929 
 359   0.0000       2.803218        76.2794 
 360   0.0000       2.806581        76.3709 
 361   0.0000       2.815470        76.6128 
 362   0.0000       2.823094        76.8203 
 363   0.0000       2.829435        76.9928 
 364   0.0000       2.834634        77.1343 
 365   0.0000       2.845213        77.4222 
 366   0.0000       2.858908        77.7948 
 367   0.0000       2.865769        77.9815 
 368   0.0000       2.879304        78.3498 
 369   0.0000       2.887307        78.5676 
 370   0.0000       2.895000        78.7770 
 371   0.0000       2.906231        79.0826 
 372   0.0000       2.914472        79.3068 
 373   0.0000       2.922880        79.5356 
 374   0.0000       2.927007        79.6479 
 375   0.0000       2.939275        79.9817 
 376   0.0000       2.950506        80.2874 
 377   0.0000       2.953972        80.3817 
 378   0.0000       2.956859        80.4602 
 379   0.0000       2.967609        80.7528 
 380   0.0000       2.972707        80.8915 
 381   0.0000       2.975487        80.9671 
 382   0.0000       2.981565        81.1325 
 383   0.0000       2.991763        81.4100 
 384   0.0000       2.998405        81.5908 
 385   0.0000       3.007459        81.8371 
 386   0.0000       3.019389        82.1617 
 387   0.0000       3.030911        82.4753 
 388   0.0000       3.039104        82.6982 
 389   0.0000       3.042830        82.7996 
 390   0.0000       3.047458        82.9255 
 391   0.0000       3.053133        83.0800 
 392   0.0000       3.056050        83.1593 
 393   0.0000       3.063239        83.3550 
 394   0.0000       3.068483        83.4977 
 395   0.0000       3.075587        83.6910 
 396   0.0000       3.085633        83.9643 
 397   0.0000       3.089660        84.0739 
 398   0.0000       3.093730        84.1847 
 399   0.0000       3.097583        84.2895 
 400   0.0000       3.104887        84.4883 
 401   0.0000       3.110711        84.6467 
 402   0.0000       3.115689        84.7822 
 403   0.0000       3.120305        84.9078 
 404   0.0000       3.123682        84.9997 
 405   0.0000       3.132088        85.2285 
 406   0.0000       3.144038        85.5536 
 407   0.0000       3.147069        85.6361 
 408   0.0000       3.153090        85.7999 
 409   0.0000       3.154814        85.8469 
 410   0.0000       3.167790        86.1999 
 411   0.0000       3.171879        86.3112 
 412   0.0000       3.175656        86.4140 
 413   0.0000       3.183106        86.6167 
 414   0.0000       3.198609        87.0386 
 415   0.0000       3.205578        87.2282 
 416   0.0000       3.223663        87.7203 
 417   0.0000       3.227547        87.8260 
 418   0.0000       3.238568        88.1259 
 419   0.0000       3.245198        88.3063 
 420   0.0000       3.251332        88.4732 
 421   0.0000       3.262579        88.7793 
 422   0.0000       3.270197        88.9866 
 423   0.0000       3.286813        89.4387 
 424   0.0000       3.290872        89.5492 
 425   0.0000       3.303978        89.9058 
 426   0.0000       3.305221        89.9396 
 427   0.0000       3.309044        90.0437 
 428   0.0000       3.318946        90.3131 
 429   0.0000       3.327552        90.5473 
 430   0.0000       3.338333        90.8407 
 431   0.0000       3.342814        90.9626 
 432   0.0000       3.350351        91.1677 
 433   0.0000       3.364015        91.5395 
 434   0.0000       3.368928        91.6732 
 435   0.0000       3.375146        91.8424 
 436   0.0000       3.378259        91.9271 
 437   0.0000       3.387353        92.1746 
 438   0.0000       3.393867        92.3518 
 439   0.0000       3.402614        92.5898 
 440   0.0000       3.408490        92.7497 
 441   0.0000       3.425089        93.2014 
 442   0.0000       3.428706        93.2998 
 443   0.0000       3.432032        93.3903 
 444   0.0000       3.434918        93.4689 
 445   0.0000       3.445986        93.7700 
 446   0.0000       3.449047        93.8533 
 447   0.0000       3.456609        94.0591 
 448   0.0000       3.457242        94.0763 
 449   0.0000       3.474787        94.5538 
 450   0.0000       3.482940        94.7756 
 451   0.0000       3.486881        94.8828 
 452   0.0000       3.502173        95.2990 
 453   0.0000       3.510314        95.5205 
 454   0.0000       3.513474        95.6065 
 455   0.0000       3.526393        95.9580 
 456   0.0000       3.532331        96.1196 
 457   0.0000       3.544074        96.4392 
 458   0.0000       3.547972        96.5452 
 459   0.0000       3.557048        96.7922 
 460   0.0000       3.574657        97.2714 
 461   0.0000       3.578343        97.3717 
 462   0.0000       3.586284        97.5877 
 463   0.0000       3.586359        97.5898 
 464   0.0000       3.597776        97.9005 
 465   0.0000       3.607545        98.1663 
 466   0.0000       3.614865        98.3655 
 467   0.0000       3.620322        98.5140 
 468   0.0000       3.632332        98.8408 
 469   0.0000       3.644790        99.1798 
 470   0.0000       3.647129        99.2434 
 471   0.0000       3.673022        99.9480 
 472   0.0000       3.677886       100.0804 
 473   0.0000       3.685477       100.2869 
 474   0.0000       3.693821       100.5140 
 475   0.0000       3.708035       100.9008 
 476   0.0000       3.721092       101.2561 
 477   0.0000       3.726256       101.3966 
 478   0.0000       3.731027       101.5264 
 479   0.0000       3.747631       101.9782 
 480   0.0000       3.749757       102.0361 
 481   0.0000       3.754476       102.1645 
 482   0.0000       3.771387       102.6247 
 483   0.0000       3.775506       102.7367 
 484   0.0000       3.782040       102.9146 
 485   0.0000       3.793920       103.2378 
 486   0.0000       3.799437       103.3879 
 487   0.0000       3.811531       103.7170 
 488   0.0000       3.820875       103.9713 
 489   0.0000       3.821750       103.9951 
 490   0.0000       3.827303       104.1462 
 491   0.0000       3.833235       104.3076 
 492   0.0000       3.839547       104.4794 
 493   0.0000       3.846112       104.6580 
 494   0.0000       3.852180       104.8232 
 495   0.0000       3.855028       104.9007 
 496   0.0000       3.874734       105.4369 
 497   0.0000       3.877284       105.5063 
 498   0.0000       3.884654       105.7068 
 499   0.0000       3.890789       105.8737 
 500   0.0000       3.901107       106.1545 
 501   0.0000       3.905797       106.2821 
 502   0.0000       3.914067       106.5072 
 503   0.0000       3.930081       106.9430 
 504   0.0000       3.941418       107.2514 
 505   0.0000       3.954758       107.6144 
 506   0.0000       3.957676       107.6938 
 507   0.0000       3.967154       107.9517 
 508   0.0000       3.978231       108.2532 
 509   0.0000       3.986034       108.4655 
 510   0.0000       3.988056       108.5205 
 511   0.0000       4.007772       109.0570 
 512   0.0000       4.017155       109.3124 
 513   0.0000       4.025493       109.5392 
 514   0.0000       4.038843       109.9025 
 515   0.0000       4.047186       110.1295 
 516   0.0000       4.049449       110.1911 
 517   0.0000       4.057927       110.4218 
 518   0.0000       4.070460       110.7628 
 519   0.0000       4.075021       110.8870 
 520   0.0000       4.081714       111.0691 
 521   0.0000       4.086634       111.2030 
 522   0.0000       4.095134       111.4343 
 523   0.0000       4.111457       111.8784 
 524   0.0000       4.118514       112.0705 
 525   0.0000       4.120486       112.1241 
 526   0.0000       4.128886       112.3527 
 527   0.0000       4.137120       112.5768 
 528   0.0000       4.145200       112.7966 
 529   0.0000       4.154181       113.0410 
 530   0.0000       4.159595       113.1883 
 531   0.0000       4.169790       113.4658 
 532   0.0000       4.181961       113.7969 
 533   0.0000       4.183353       113.8348 
 534   0.0000       4.192445       114.0822 
 535   0.0000       4.197064       114.2079 
 536   0.0000       4.202989       114.3691 
 537   0.0000       4.214313       114.6773 
 538   0.0000       4.225061       114.9698 
 539   0.0000       4.229199       115.0823 
 540   0.0000       4.238707       115.3411 
 541   0.0000       4.245416       115.5237 
 542   0.0000       4.251192       115.6808 
 543   0.0000       4.258827       115.8886 
 544   0.0000       4.268361       116.1480 
 545   0.0000       4.276371       116.3660 
 546   0.0000       4.277198       116.3885 
 547   0.0000       4.285464       116.6134 
 548   0.0000       4.301385       117.0466 
 549   0.0000       4.303994       117.1176 
 550   0.0000       4.317882       117.4955 
 551   0.0000       4.318302       117.5070 
 552   0.0000       4.329301       117.8063 
 553   0.0000       4.335876       117.9852 
 554   0.0000       4.341387       118.1351 
 555   0.0000       4.346459       118.2732 
 556   0.0000       4.358207       118.5928 
 557   0.0000       4.366460       118.8174 
 558   0.0000       4.376101       119.0798 
 559   0.0000       4.380435       119.1977 
 560   0.0000       4.395577       119.6097 
 561   0.0000       4.404256       119.8459 
 562   0.0000       4.417913       120.2175 
 563   0.0000       4.424559       120.3984 
 564   0.0000       4.433105       120.6309 
 565   0.0000       4.436461       120.7223 
 566   0.0000       4.456541       121.2687 
 567   0.0000       4.474038       121.7448 
 568   0.0000       4.490201       122.1846 
 569   0.0000       4.501730       122.4983 
 570   0.0000       4.513549       122.8199 
 571   0.0000       4.527812       123.2080 
 572   0.0000       4.542812       123.6162 
 573   0.0000       4.559624       124.0737 
 574   0.0000       4.567840       124.2972 
 575   0.0000       4.584971       124.7634 
 576   0.0000       4.606858       125.3590 
 577   0.0000       4.615734       125.6005 
 578   0.0000       4.633354       126.0800 
 579   0.0000       4.669708       127.0692 
 580   0.0000       4.689214       127.6000 
 581   0.0000       4.699443       127.8783 
 582   0.0000       4.714234       128.2808 
 583   0.0000       4.727548       128.6431 
 584   0.0000       4.745546       129.1329 
 585   0.0000       4.764905       129.6597 
 586   0.0000       4.778021       130.0166 
 587   0.0000       4.787497       130.2744 
 588   0.0000       4.793705       130.4433 
 589   0.0000       4.812589       130.9572 
 590   0.0000       4.824705       131.2869 
 591   0.0000       4.833361       131.5224 
 592   0.0000       4.843327       131.7936 
 593   0.0000       4.851741       132.0226 
 594   0.0000       4.862800       132.3235 
 595   0.0000       4.874214       132.6341 
 596   0.0000       4.885465       132.9403 
 597   0.0000       4.889774       133.0575 
 598   0.0000       4.894927       133.1977 
 599   0.0000       4.907884       133.5503 
 600   0.0000       4.927246       134.0772 
 601   0.0000       4.932582       134.2224 
 602   0.0000       4.964056       135.0788 
 603   0.0000       4.970759       135.2612 
 604   0.0000       4.982919       135.5921 
 605   0.0000       5.006123       136.2235 
 606   0.0000       5.015669       136.4833 
 607   0.0000       5.032474       136.9406 
 608   0.0000       5.040128       137.1489 
 609   0.0000       5.058793       137.6568 
 610   0.0000       5.082346       138.2977 
 611   0.0000       5.093409       138.5987 
 612   0.0000       5.120115       139.3254 
 613   0.0000       5.129818       139.5894 
 614   0.0000       5.147476       140.0699 
 615   0.0000       5.163057       140.4939 
 616   0.0000       5.168647       140.6460 
 617   0.0000       5.171735       140.7301 
 618   0.0000       5.183562       141.0519 
 619   0.0000       5.187393       141.1561 
 620   0.0000       5.204841       141.6309 
 621   0.0000       5.227603       142.2503 
 622   0.0000       5.229956       142.3143 
 623   0.0000       5.251609       142.9035 
 624   0.0000       5.264877       143.2646 
 625   0.0000       5.273255       143.4926 
 626   0.0000       5.282619       143.7474 
 627   0.0000       5.297085       144.1410 
 628   0.0000       5.303856       144.3253 
 629   0.0000       5.316940       144.6813 
 630   0.0000       5.331812       145.0860 
 631   0.0000       5.340181       145.3137 
 632   0.0000       5.346389       145.4826 
 633   0.0000       5.358023       145.7992 
 634   0.0000       5.370979       146.1518 
 635   0.0000       5.383199       146.4843 
 636   0.0000       5.386527       146.5748 
 637   0.0000       5.402200       147.0013 
 638   0.0000       5.408707       147.1784 
 639   0.0000       5.420557       147.5008 
 640   0.0000       5.437407       147.9594 
 641   0.0000       5.449773       148.2959 
 642   0.0000       5.469830       148.8416 
 643   0.0000       5.475173       148.9870 
 644   0.0000       5.488738       149.3562 
 645   0.0000       5.508900       149.9048 
 646   0.0000       5.515099       150.0735 
 647   0.0000       5.530444       150.4910 
 648   0.0000       5.551039       151.0514 
 649   0.0000       5.595324       152.2565 
 650   0.0000       5.608354       152.6111 
 651   0.0000       5.630138       153.2038 
 652   0.0000       5.690846       154.8558 
 653   0.0000       5.729793       155.9156 
 654   0.0000       5.822838       158.4475 
 655   0.0000       5.856818       159.3721 
 656   0.0000       5.890555       160.2901 
 657   0.0000       5.913466       160.9136 
 658   0.0000       5.933947       161.4709 
 659   0.0000       5.947536       161.8407 
 660   0.0000       5.954139       162.0204 
 661   0.0000       5.957407       162.1093 
 662   0.0000       5.964582       162.3045 
 663   0.0000       5.994312       163.1135 
 664   0.0000       6.001710       163.3148 
 665   0.0000       6.035021       164.2213 
 666   0.0000       6.045286       164.5006 
 667   0.0000       6.123842       166.6382 
 668   0.0000       6.158511       167.5816 
 669   0.0000       6.189570       168.4268 
 670   0.0000       6.202810       168.7870 
 671   0.0000       6.366380       173.2380 
 672   0.0000       6.372384       173.4014 
 673   0.0000       6.396274       174.0515 
 674   0.0000       6.442084       175.2980 
 675   0.0000       6.457243       175.7105 
 676   0.0000       6.559887       178.5036 
 677   0.0000       6.646008       180.8471 
 678   0.0000       6.738783       183.3716 
 679   0.0000       6.754936       183.8111 
 680   0.0000       6.783698       184.5938 
 681   0.0000       6.883175       187.3007 
 682   0.0000       6.908868       187.9999 
 683   0.0000       7.019412       191.0079 
 684   0.0000       7.187148       195.5723 
 685   0.0000       7.260910       197.5794 
 686   0.0000       7.430313       202.1891 
 687   0.0000       8.670679       235.9412 
 688   0.0000       9.362793       254.7745 
 689   0.0000      11.549306       314.2726 
 690   0.0000      11.995228       326.4068 
 691   0.0000      12.272173       333.9428 
 692   0.0000      12.374793       336.7352 
 693   0.0000      12.770679       347.5079 
 694   0.0000      12.800724       348.3254 
 695   0.0000      13.194494       359.0404 
 696   0.0000      13.361557       363.5864 
 697   0.0000      13.484794       366.9399 
 698   0.0000      13.508693       367.5902 
 699   0.0000      13.541477       368.4823 
 700   0.0000      13.750281       374.1642 
 701   0.0000      15.631750       425.3615 

                    ********************************
                    * MULLIKEN POPULATION ANALYSIS *
                    ********************************

-----------------------
MULLIKEN ATOMIC CHARGES
-----------------------
   0 O :   -0.268232
   1 O :   -0.308387
   2 C :   -0.014833
   3 C :   -0.206229
   4 C :    0.101032
   5 C :    0.084697
   6 C :   -0.135861
   7 C :   -0.298011
   8 C :   -0.300040
   9 C :   -0.154137
  10 C :   -0.131725
  11 C :   -0.090816
  12 C :   -0.110940
  13 C :   -0.264743
  14 C :    0.296723
  15 H :    0.090646
  16 H :    0.090356
  17 H :    0.090188
  18 H :    0.116762
  19 H :    0.100802
  20 H :    0.086824
  21 H :    0.084978
  22 H :    0.084593
  23 H :    0.101458
  24 H :    0.088022
  25 H :    0.101343
  26 H :    0.091193
  27 H :    0.078931
  28 H :    0.087532
  29 H :    0.096183
  30 H :    0.089398
  31 H :    0.101516
  32 H :    0.220776
Sum of atomic charges:   -0.0000000

--------------------------------
MULLIKEN REDUCED ORBITAL CHARGES
--------------------------------
  0 O s       :     3.720327  s :     3.720327
      pz      :     1.746496  p :     4.520455
      px      :     1.368470
      py      :     1.405488
      dz2     :     0.003721  d :     0.025881
      dxz     :     0.004967
      dyz     :     0.000846
      dx2y2   :     0.011014
      dxy     :     0.005333
      f0      :     0.000205  f :     0.001569
      f+1     :     0.000337
      f-1     :     0.000168
      f+2     :     0.000156
      f-2     :     0.000047
      f+3     :     0.000401
      f-3     :     0.000255
[...]
      dxz     :     0.068993
      dyz     :     0.119429
      dx2y2   :     0.109280
      dxy     :     0.084475
      f0      :     0.006609  f :     0.050645
      f+1     :     0.007246
      f-1     :     0.011656
      f+2     :     0.005837
      f-2     :     0.006729
      f+3     :     0.006103
      f-3     :     0.006465
  3 C s       :     2.657382  s :     2.657382
      pz      :     0.972100  p :     2.835479
      px      :     0.920816
      py      :     0.942563
      dz2     :     0.085062  d :     0.402969
      dxz     :     0.063032
      dyz     :     0.058857
      dx2y2   :     0.102675
      dxy     :     0.093343
      f0      :     0.005608  f :     0.039998
      f+1     :     0.005295
      f-1     :     0.002949
      f+2     :     0.006198
      f-2     :     0.005529
      f+3     :     0.006558
      f-3     :     0.007862
  4 C s       :     2.692802  s :     2.692802
      pz      :     0.984784  p :     2.777719
      px      :     0.946527
      py      :     0.846408
      dz2     :     0.124729  d :     0.513629
      dxz     :     0.148289
      dyz     :     0.072201
      dx2y2   :     0.084561
      dxy     :     0.083850
      f0      :     0.010415  f :     0.055396
      f+1     :     0.009736
      f-1     :     0.005852
      f+2     :     0.011069
      f-2     :     0.007092
      f+3     :     0.004806
      f-3     :     0.006426
  5 C s       :     2.690365  s :     2.690365
      pz      :     0.990597  p :     2.778044
      px      :     0.924235
      py      :     0.863212
      dz2     :     0.128007  d :     0.515915
      dxz     :     0.146567
      dyz     :     0.073707
      dx2y2   :     0.087011
      dxy     :     0.080623
      f0      :     0.010526  f :     0.055368
      f+1     :     0.009725
      f-1     :     0.005864
      f+2     :     0.011011
      f-2     :     0.007143
      f+3     :     0.004874
      f-3     :     0.006224
  6 C s       :     2.663578  s :     2.663578
      pz      :     0.969037  p :     2.829891
      px      :     0.929244
      py      :     0.931611
      dz2     :     0.117320  d :     0.486884
      dxz     :     0.071187
      dyz     :     0.068652
      dx2y2   :     0.122232
      dxy     :     0.107493
      f0      :     0.006318  f :     0.050886
      f+1     :     0.006319
      f-1     :     0.006674
      f+2     :     0.008036
      f-2     :     0.005958
      f+3     :     0.007919
      f-3     :     0.009662
  7 C s       :     2.662498  s :     2.662498
      pz      :     0.924579  p :     2.902620
      px      :     0.991749
      py      :     0.986293
      dz2     :     0.070991  d :     0.297379
      dxz     :     0.057571
      dyz     :     0.083032
      dx2y2   :     0.041544
      dxy     :     0.044241
      f0      :     0.006160  f :     0.029552
      f+1     :     0.005842
      f-1     :     0.004848
      f+2     :     0.004073
      f-2     :     0.003793
      f+3     :     0.003144
      f-3     :     0.001693
  8 C s       :     2.662562  s :     2.662562
      pz      :     0.968682  p :     2.902960
      px      :     0.989692
      py      :     0.944586
      dz2     :     0.097508  d :     0.296836
      dxz     :     0.016593
      dyz     :     0.047799
      dx2y2   :     0.060446
      dxy     :     0.074491
      f0      :     0.004412  f :     0.029574
      f+1     :     0.002706
      f-1     :     0.004471
      f+2     :     0.004559
      f-2     :     0.004824
      f+3     :     0.004700
      f-3     :     0.003904
  9 C s       :     2.696697  s :     2.696697
      pz      :     0.952482  p :     2.813254
      px      :     0.996619
      py      :     0.864152
      dz2     :     0.085410  d :     0.406698
      dxz     :     0.134713
      dyz     :     0.036896
      dx2y2   :     0.069562
      dxy     :     0.080117
      f0      :     0.007253  f :     0.043238
      f+1     :     0.007802
      f-1     :     0.003953
      f+2     :     0.008343
      f-2     :     0.004581
      f+3     :     0.004994
      f-3     :     0.006312
 10 C s       :     2.696799  s :     2.696799
      pz      :     0.954819  p :     2.815100
      px      :     0.991885
      py      :     0.868396
      dz2     :     0.079035  d :     0.405992
      dxz     :     0.144085
      dyz     :     0.045719
      dx2y2   :     0.061131
      dxy     :     0.076022
      f0      :     0.008455  f :     0.043233
      f+1     :     0.007258
      f-1     :     0.004699
      f+2     :     0.007996
      f-2     :     0.004014
      f+3     :     0.004641
      f-3     :     0.006169
 11 C s       :     2.695010  s :     2.695010
      pz      :     0.957976  p :     2.812605
      px      :     0.992508
      py      :     0.862121
      dz2     :     0.079473  d :     0.404419
      dxz     :     0.145097
      dyz     :     0.045056
      dx2y2   :     0.059744
      dxy     :     0.075048
      f0      :     0.008669  f :     0.043505
      f+1     :     0.007353
      f-1     :     0.004751
      f+2     :     0.007996
      f-2     :     0.004003
      f+3     :     0.004646
      f-3     :     0.006086
 12 C s       :     2.696124  s :     2.696124
      pz      :     0.949507  p :     2.814163
      px      :     0.995963
      py      :     0.868692
      dz2     :     0.083352  d :     0.408027
      dxz     :     0.134531
      dyz     :     0.037668
      dx2y2   :     0.069855
      dxy     :     0.082621
      f0      :     0.007233  f :     0.043499
      f+1     :     0.007839
      f-1     :     0.004008
      f+2     :     0.008327
      f-2     :     0.004753
      f+3     :     0.004962
      f-3     :     0.006377
 13 C s       :     2.662044  s :     2.662044
      pz      :     0.966644  p :     2.893811
      px      :     0.972719
      py      :     0.954448
      dz2     :     0.094494  d :     0.290839
      dxz     :     0.027803
      dyz     :     0.043439
      dx2y2   :     0.085588
      dxy     :     0.039514
      f0      :     0.003953  f :     0.029371
      f+1     :     0.003727
      f-1     :     0.004768
      f+2     :     0.004005
      f-2     :     0.005225
      f+3     :     0.005277
      f-3     :     0.002417
 14 C s       :     2.758089  s :     2.758089
      pz      :     0.935876  p :     2.624816
      px      :     0.761254
      py      :     0.927686
      dz2     :     0.292999  d :     0.945682
      dxz     :     0.186685
      dyz     :     0.274144
      dx2y2   :     0.093410
      dxy     :     0.098443
      f0      :     0.041991  f :     0.154106
      f+1     :     0.017776
      f-1     :     0.029079
      f+2     :     0.026746
      f-2     :     0.026951
      f+3     :     0.005580
      f-3     :     0.005982
 15 H s       :     0.828440  s :     0.828440
      pz      :     0.043365  p :     0.161555
      px      :     0.074720
      py      :     0.043471
      dz2     :     0.003590  d :     0.030657
      dxz     :     0.008743
      dyz     :     0.000739
      dx2y2   :     0.008191
      dxy     :     0.009394
 16 H s       :     0.829598  s :     0.829598
      pz      :     0.072665  p :     0.155776
      px      :     0.040566
      py      :     0.042546
      dz2     :     0.010115  d :     0.030163
      dxz     :     0.008977
      dyz     :     0.009601
      dx2y2   :     0.000928
      dxy     :     0.000542
 17 H s       :     0.829825  s :     0.829825
      pz      :     0.049104  p :     0.155823
      px      :     0.043129
      py      :     0.063590
      dz2     :     0.006368  d :     0.030152
      dxz     :     0.002990
      dyz     :     0.006906
      dx2y2   :     0.007173
      dxy     :     0.006714
 18 H s       :     0.818914  s :     0.818914
      pz      :     0.075631  p :     0.157968
      px      :     0.040530
      py      :     0.041807
      dz2     :     0.010748  d :     0.031332
      dxz     :     0.009101
      dyz     :     0.009289
      dx2y2   :     0.001311
      dxy     :     0.000883
 19 H s       :     0.840408  s :     0.840408
      pz      :     0.042516  p :     0.157904
      px      :     0.071076
      py      :     0.044312
      dz2     :     0.003463  d :     0.029425
      dxz     :     0.008559
      dyz     :     0.001027
      dx2y2   :     0.007340
      dxy     :     0.009036
 20 H s       :     0.844103  s :     0.844103
      pz      :     0.049998  p :     0.156076
      px      :     0.044492
      py      :     0.061585
      dz2     :     0.006084  d :     0.029249
      dxz     :     0.002672
      dyz     :     0.007545
      dx2y2   :     0.006123
      dxy     :     0.006824
 21 H s       :     0.841149  s :     0.841149
      pz      :     0.044046  p :     0.156213
      px      :     0.052722
      py      :     0.059444
      dz2     :     0.003868  d :     0.029313
      dxz     :     0.003608
      dyz     :     0.006027
      dx2y2   :     0.009089
      dxy     :     0.006721
 22 H s       :     0.841051  s :     0.841051
      pz      :     0.043496  p :     0.156178
      px      :     0.052299
      py      :     0.060383
      dz2     :     0.004169  d :     0.029340
      dxz     :     0.003224
      dyz     :     0.005874
      dx2y2   :     0.009061
      dxy     :     0.007013
 23 H s       :     0.840421  s :     0.840421
      pz      :     0.041687  p :     0.157834
      px      :     0.071806
      py      :     0.044341
      dz2     :     0.003169  d :     0.029414
      dxz     :     0.008355
      dyz     :     0.000900
      dx2y2   :     0.007665
      dxy     :     0.009325
 24 H s       :     0.843765  s :     0.843765
      pz      :     0.071806  p :     0.156125
      px      :     0.043265
      py      :     0.041055
      dz2     :     0.010154  d :     0.029207
      dxz     :     0.009132
      dyz     :     0.009108
      dx2y2   :     0.000445
      dxy     :     0.000368
 25 H s       :     0.840450  s :     0.840450
      pz      :     0.067257  p :     0.157078
      px      :     0.042848
      py      :     0.046973
      dz2     :     0.009262  d :     0.029286
      dxz     :     0.007933
      dyz     :     0.006974
      dx2y2   :     0.002633
      dxy     :     0.002485
 26 H s       :     0.840921  s :     0.840921
      pz      :     0.060074  p :     0.157457
      px      :     0.048613
      py      :     0.048770
      dz2     :     0.007981  d :     0.029264
      dxz     :     0.007442
      dyz     :     0.005893
      dx2y2   :     0.004065
      dxy     :     0.003883
 27 H s       :     0.836522  s :     0.836522
      pz      :     0.060561  p :     0.158948
      px      :     0.050234
      py      :     0.048152
      dz2     :     0.008026  d :     0.029271
      dxz     :     0.007531
      dyz     :     0.005876
      dx2y2   :     0.003993
      dxy     :     0.003845
 28 H s       :     0.840899  s :     0.840899
      pz      :     0.066767  p :     0.157402
      px      :     0.042963
      py      :     0.047672
      dz2     :     0.009162  d :     0.029199
      dxz     :     0.007824
      dyz     :     0.006947
      dx2y2   :     0.002745
      dxy     :     0.002519
 29 H s       :     0.838341  s :     0.838341
      pz      :     0.043123  p :     0.155584
      px      :     0.044641
      py      :     0.067820
      dz2     :     0.003105  d :     0.029434
      dxz     :     0.001060
      dyz     :     0.008276
      dx2y2   :     0.008870
      dxy     :     0.008123
 30 H s       :     0.835519  s :     0.835519
      pz      :     0.071679  p :     0.157101
      px      :     0.041965
      py      :     0.043457
      dz2     :     0.010564  d :     0.029693
      dxz     :     0.008656
      dyz     :     0.008617
      dx2y2   :     0.001189
      dxy     :     0.000667
 31 H s       :     0.838491  s :     0.838491
      pz      :     0.042460  p :     0.155313
      px      :     0.072541
      py      :     0.040313
      dz2     :     0.003074  d :     0.029196
      dxz     :     0.009151
      dyz     :     0.000163
      dx2y2   :     0.007476
      dxy     :     0.009332
 32 H s       :     0.719377  s :     0.719377
      pz      :     0.088801  p :     0.341813
      px      :     0.104884
      py      :     0.148128
      dz2     :     0.010283  d :     0.097679
      dxz     :     0.004829
      dyz     :     0.027859
      dx2y2   :     0.025941
      dxy     :     0.028766


                      *****************************
                      * MAYER POPULATION ANALYSIS *
                      *****************************

  NA   - Mulliken gross atomic population
  ZA   - Total nuclear charge
  QA   - Mulliken gross atomic charge
  VA   - Mayer's total valence
  BVA  - Mayer's bonded valence
  FA   - Mayer's free valence

  ATOM       NA         ZA         QA         VA         BVA        FA
  0 O      8.2657     8.0000    -0.2657     2.2832     2.2832     0.0000
  1 O      8.3179     8.0000    -0.3179     2.2598     2.2598     0.0000
  2 C      6.0224     6.0000    -0.0224     3.8138     3.8138     0.0000
  3 C      6.2059     6.0000    -0.2059     3.9053     3.9053    -0.0000
  4 C      5.9329     6.0000     0.0671     3.8000     3.8000    -0.0000
  5 C      5.9934     6.0000     0.0066     3.9125     3.9125    -0.0000
  6 C      6.0946     6.0000    -0.0946     3.7740     3.7740    -0.0000
  7 C      6.3044     6.0000    -0.3044     3.8837     3.8837     0.0000
  8 C      6.2989     6.0000    -0.2989     3.8731     3.8731     0.0000
  9 C      6.1258     6.0000    -0.1258     3.8602     3.8602    -0.0000
 10 C      6.1178     6.0000    -0.1178     3.8633     3.8633    -0.0000
 11 C      6.1128     6.0000    -0.1128     3.8628     3.8628    -0.0000
 12 C      6.0985     6.0000    -0.0985     3.8790     3.8790    -0.0000
 13 C      6.2875     6.0000    -0.2875     3.8680     3.8680    -0.0000
 14 C      5.7036     6.0000     0.2964     4.3475     4.3475    -0.0000
 15 H      0.9050     1.0000     0.0950     0.9867     0.9867     0.0000
 16 H      0.9031     1.0000     0.0969     0.9939     0.9939    -0.0000
 17 H      0.9039     1.0000     0.0961     0.9947     0.9947     0.0000
 18 H      0.8801     1.0000     0.1199     1.0114     1.0114    -0.0000
 19 H      0.9027     1.0000     0.0973     0.9950     0.9950    -0.0000
 20 H      0.9088     1.0000     0.0912     0.9917     0.9917    -0.0000
 21 H      0.9108     1.0000     0.0892     0.9929     0.9929     0.0000
 22 H      0.9091     1.0000     0.0909     0.9882     0.9882    -0.0000
 23 H      0.9058     1.0000     0.0942     0.9950     0.9950    -0.0000
 24 H      0.9081     1.0000     0.0919     0.9868     0.9868    -0.0000
 25 H      0.8974     1.0000     0.1026     1.0002     1.0002    -0.0000
 26 H      0.9025     1.0000     0.0975     1.0013     1.0013    -0.0000
 27 H      0.8973     1.0000     0.1027     1.0180     1.0180    -0.0000
 28 H      0.9091     1.0000     0.0909     1.0018     1.0018    -0.0000
 29 H      0.8997     1.0000     0.1003     0.9901     0.9901     0.0000
 30 H      0.8917     1.0000     0.1083     1.0028     1.0028    -0.0000
 31 H      0.8983     1.0000     0.1017     0.9897     0.9897    -0.0000
 32 H      0.7842     1.0000     0.2158     1.0482     1.0482     0.0000

  Mayer bond orders larger than 0.100000
B(  0-O , 14-C ) :   1.2633 B(  0-O , 32-H ) :   0.9621 B(  1-O , 14-C ) :   2.1107 
B(  2-C ,  3-C ) :   0.9286 B(  2-C ,  7-C ) :   0.9414 B(  2-C ,  8-C ) :   0.9440 
B(  2-C , 15-H ) :   0.9692 B(  3-C ,  4-C ) :   0.9773 B(  3-C , 16-H ) :   0.9741 
B(  3-C , 17-H ) :   0.9766 B(  4-C ,  9-C ) :   1.3448 B(  4-C , 10-C ) :   1.3426 
B(  5-C ,  6-C ) :   0.9919 B(  5-C , 11-C ) :   1.3583 B(  5-C , 12-C ) :   1.3617 
B(  6-C , 13-C ) :   0.9301 B(  6-C , 14-C ) :   0.8957 B(  6-C , 18-H ) :   0.9633 
B(  7-C , 19-H ) :   0.9687 B(  7-C , 20-H ) :   0.9762 B(  7-C , 21-H ) :   0.9770 
B(  8-C , 22-H ) :   0.9736 B(  8-C , 23-H ) :   0.9663 B(  8-C , 24-H ) :   0.9723 
B(  9-C , 11-C ) :   1.3881 B(  9-C , 25-H ) :   0.9732 B( 10-C , 12-C ) :   1.3858 
B( 10-C , 26-H ) :   0.9759 B( 11-C , 27-H ) :   0.9616 B( 12-C , 28-H ) :   0.9678 
B( 13-C , 29-H ) :   0.9673 B( 13-C , 30-H ) :   0.9682 B( 13-C , 31-H ) :   0.9675 


-------
TIMINGS
-------

Total SCF time: 0 days 0 hours 1 min 53 sec 

Total time                  ....     113.751 sec
Sum of individual times     ....     109.764 sec  ( 96.5%)

Fock matrix formation       ....     105.145 sec  ( 92.4%)
  XC integration            ....       4.338 sec  (  4.1% of F)
    Basis function eval.    ....       0.311 sec  (  7.2% of XC)
    Density eval.           ....       0.305 sec  (  7.0% of XC)
    XC-Functional eval.     ....       0.026 sec  (  0.6% of XC)
    XC-Potential eval.      ....       0.397 sec  (  9.2% of XC)
Diagonalization             ....       0.204 sec  (  0.2%)
Density matrix formation    ....       0.278 sec  (  0.2%)
Population analysis         ....       1.175 sec  (  1.0%)
Initial guess               ....       0.230 sec  (  0.2%)
Orbital Transformation      ....       0.000 sec  (  0.0%)
Orbital Orthonormalization  ....       0.176 sec  (  0.2%)
DIIS solution               ....       0.125 sec  (  0.1%)
SOSCF solution              ....       1.388 sec  (  1.2%)
Grid generation             ....       1.220 sec  (  1.1%)

-------------------------   --------------------
FINAL SINGLE POINT ENERGY      -656.534154963448
-------------------------   --------------------

                                *** OPTIMIZATION RUN DONE ***

                            ***************************************
                            *     ORCA property calculations      *
                            ***************************************

                                    ---------------------
                                    Active property flags
                                    ---------------------
   (+) Dipole Moment


------------------------------------------------------------------------------
                       ORCA ELECTRIC PROPERTIES CALCULATION
------------------------------------------------------------------------------

Dipole Moment Calculation                       ... on
Quadrupole Moment Calculation                   ... off
Polarizability Calculation                      ... off
GBWName                                         ... IBU0.gbw
Electron density file                           ... IBU0.scfp
The origin for moment calculation is the CENTER OF MASS  = (-0.204336, -0.080298 -0.101232)

-------------
DIPOLE MOMENT
-------------
                                X             Y             Z
Electronic contribution:    -16.91484      -0.65298      -0.60084
Nuclear contribution   :     17.34928       0.82053       1.08875
                        -----------------------------------------
Total Dipole Moment    :      0.43443       0.16755       0.48792
                        -----------------------------------------
Magnitude (a.u.)       :      0.67444
Magnitude (Debye)      :      1.71429



--------------------
Rotational spectrum 
--------------------
 
Rotational constants in cm-1:     0.039958     0.009338     0.009010 
Rotational constants in MHz :  1197.918727   279.944301   270.125226 

 Dipole components along the rotational axes: 
x,y,z [a.u.] :     0.456312     0.168875    -0.467043 
x,y,z [Debye]:     1.159853     0.429247    -1.187129 

 

Timings for individual modules:

Sum of individual times         ...     8759.563 sec (= 145.993 min)
GTO integral calculation        ...       64.859 sec (=   1.081 min)   0.7 %
SCF iterations                  ...     6296.243 sec (= 104.937 min)  71.9 %
SCF Gradient evaluation         ...     2384.879 sec (=  39.748 min)  27.2 %
Geometry relaxation             ...       13.583 sec (=   0.226 min)   0.2 %
                             ****ORCA TERMINATED NORMALLY****
TOTAL RUN TIME: 0 days 2 hours 26 minutes 11 seconds 929 msec
